/*--------------------------------*- C++ -*----------------------------------*\
  =========                 |
  \\      /  F ield         | OpenFOAM: The Open Source CFD Toolbox
   \\    /   O peration     | Website:  https://openfoam.org
    \\  /    A nd           | Version:  13
     \\/     M anipulation  |
\*---------------------------------------------------------------------------*/
FoamFile
{
    format      ascii;
    class       surfaceScalarField;
    location    "0.001";
    object      phi;
}
// * * * * * * * * * * * * * * * * * * * * * * * * * * * * * * * * * * * * * //

dimensions      [1 0 -1 0 0 0 0];

internalField   nonuniform List<scalar> 
999
(
0
0
4.54747e-13
2.27374e-13
0
0
-3.41061e-13
-3.41061e-13
0
2.27374e-13
1.13687e-13
1.13687e-13
1.13687e-13
-2.27374e-13
-2.27374e-13
0
0
-1.13687e-13
1.13687e-13
4.54747e-13
3.41061e-13
-2.27374e-13
-3.41061e-13
0
0
0
0
4.54747e-13
2.27374e-13
0
0
-3.41061e-13
-3.41061e-13
0
2.27374e-13
1.13687e-13
1.13687e-13
1.13687e-13
-2.27374e-13
-2.27374e-13
0
0
-1.13687e-13
1.13687e-13
4.54747e-13
3.41061e-13
-2.27374e-13
-3.41061e-13
0
0
0
0
4.54747e-13
2.27374e-13
0
0
-3.41061e-13
-3.41061e-13
0
2.27374e-13
1.13687e-13
1.13687e-13
1.13687e-13
-2.27374e-13
-2.27374e-13
0
0
-1.13687e-13
1.13687e-13
4.54747e-13
3.41061e-13
-2.27374e-13
-3.41061e-13
0
0
0
1.13687e-13
4.54747e-13
2.27374e-13
0
3.41061e-13
2.27374e-13
1.13687e-13
4.54747e-13
5.68434e-13
5.68434e-13
4.54747e-13
2.27374e-13
2.27374e-13
3.41061e-13
4.54747e-13
3.41061e-13
3.41061e-13
3.41061e-13
2.27374e-13
-1.13687e-13
-2.27374e-13
0
0
-2.27374e-13
-5.68434e-13
-5.68434e-13
-4.54747e-13
-4.54747e-13
-4.54747e-13
-4.54747e-13
-5.68434e-13
-5.68434e-13
-4.54747e-13
-4.54747e-13
0
1.13687e-13
-1.13687e-13
-1.13687e-13
0
0
0
3.41061e-13
3.41061e-13
2.27374e-13
2.27374e-13
1.13687e-13
1.13687e-13
1.13687e-13
1.13687e-13
0
-1.13687e-13
-2.27374e-13
-4.54747e-13
-4.54747e-13
-2.27374e-13
0
0
0
0
1.13687e-13
1.13687e-13
-1.13687e-13
-1.13687e-13
0
0
0
3.41061e-13
3.41061e-13
2.27374e-13
2.27374e-13
1.13687e-13
1.13687e-13
1.13687e-13
1.13687e-13
0
-1.13687e-13
-2.27374e-13
-4.54747e-13
-4.54747e-13
-2.27374e-13
0
0
0
0
1.13687e-13
1.13687e-13
-1.13687e-13
-1.13687e-13
0
0
0
3.41061e-13
3.41061e-13
2.27374e-13
5.68434e-13
5.68434e-13
5.68434e-13
5.68434e-13
5.68434e-13
4.54747e-13
2.27374e-13
2.27374e-13
2.27374e-13
2.27374e-13
4.54747e-13
4.54747e-13
1.13687e-13
-1.13687e-13
-5.68434e-13
-4.54747e-13
-3.41061e-13
-5.68434e-13
-6.82121e-13
-3.41061e-13
-2.27374e-13
-2.27374e-13
-4.54747e-13
-3.41061e-13
-3.41061e-13
-4.54747e-13
-4.54747e-13
-2.27374e-13
-3.41061e-13
-3.41061e-13
0
3.41061e-13
3.41061e-13
0
0
0
0
0
-2.27374e-13
-4.54747e-13
0
3.41061e-13
2.27374e-13
0
2.27374e-13
5.68434e-13
5.68434e-13
4.54747e-13
4.54747e-13
2.27374e-13
-1.13687e-13
-1.13687e-13
0
-3.41061e-13
-2.27374e-13
-3.41061e-13
-3.41061e-13
0
0
0
0
1.13687e-13
1.13687e-13
-2.27374e-13
-7.95808e-13
-7.95808e-13
-1.13687e-12
-5.68434e-13
-1.02318e-12
0
-1.13687e-13
9.09495e-13
2.27374e-13
1.02318e-12
4.54747e-13
4.54747e-13
-1.13687e-13
1.02318e-12
2.27374e-13
4.54747e-13
1.13687e-13
1.13687e-13
1.13687e-13
0
0
1.13687e-13
0
2.27374e-13
1.13687e-13
1.13687e-13
1.13687e-13
-1.13687e-13
-1.13687e-13
-3.41061e-13
-3.41061e-13
0
1.13687e-12
5.68434e-13
2.27374e-13
1.13687e-13
0
-1.13687e-13
0
2.27374e-13
2.27374e-13
2.27374e-13
1.13687e-13
1.13687e-13
0
3.41061e-13
3.41061e-13
5.68434e-13
2.27374e-13
-1.13687e-13
-1.13687e-13
-1.13687e-13
-3.41061e-13
-2.27374e-13
-1.13687e-13
-1.13687e-13
-1.13687e-13
-1.13687e-13
1.13687e-13
2.27374e-13
2.27374e-13
7.95808e-13
9.09495e-13
1.13687e-12
1.47793e-12
1.93268e-12
1.93268e-12
6.82121e-13
1.02318e-12
1.13687e-13
4.54747e-13
7.95808e-13
3.41061e-13
2.27374e-13
2.27374e-13
2.27374e-13
1.13687e-13
-5.68434e-13
-1.13687e-13
0
1.13687e-13
-1.13687e-13
-2.27374e-13
2.27374e-13
1.13687e-13
4.54747e-13
6.82121e-13
5.68434e-13
4.54747e-13
-3.41061e-13
-5.68434e-13
-2.27374e-13
-2.27374e-13
0
0
2.27374e-13
-2.27374e-13
-4.54747e-13
-5.68434e-13
-6.82121e-13
-3.41061e-13
-3.41061e-13
-4.54747e-13
3.41061e-13
4.54747e-13
3.41061e-13
0
-3.41061e-13
-3.41061e-13
0
2.27374e-13
2.27374e-13
2.27374e-13
-1.13687e-13
-1.13687e-13
-1.13687e-13
1.13687e-13
3.41061e-13
3.41061e-13
2.27374e-13
1.13687e-13
2.27374e-13
-4.54747e-13
-1.02318e-12
-6.82121e-13
-9.09495e-13
-5.68434e-13
-7.95808e-13
1.13687e-13
2.27374e-13
2.27374e-13
0
-2.27374e-13
-2.27374e-13
0
1.13687e-13
-1.13687e-13
1.13687e-13
4.54747e-13
4.54747e-13
3.41061e-13
6.82121e-13
3.41061e-13
4.54747e-13
3.41061e-13
2.27374e-13
3.41061e-13
3.41061e-13
6.82121e-13
7.95808e-13
2.27374e-13
0
-1.13687e-13
1.25056e-12
7.95808e-13
-1.13687e-13
-7.95808e-13
-9.09495e-13
-6.82121e-13
-3.41061e-13
-4.54747e-13
-4.54747e-13
-1.13687e-13
-1.13687e-13
0
2.27374e-13
5.68434e-13
6.82121e-13
2.27374e-13
0
4.54747e-13
1.13687e-13
2.27374e-13
1.13687e-13
1.13687e-13
1.13687e-13
1.13687e-13
1.13687e-13
3.41061e-13
1.13687e-13
3.41061e-13
-1.13687e-13
2.27374e-13
4.54747e-13
4.54747e-13
2.27374e-13
1.13687e-13
1.13687e-13
-4.54747e-13
-5.68434e-13
-4.54747e-13
-3.41061e-13
3.41061e-13
7.95808e-13
2.6148e-12
7.61702e-12
2.42153e-11
7.77618e-11
2.56819e-10
8.43443e-10
2.74849e-09
8.82721e-09
2.79172e-08
8.69331e-08
2.66339e-07
8.02516e-07
2.37698e-06
6.91731e-06
1.97676e-05
5.54398e-05
0.000152495
0.000411094
0.00108526
0.00280306
0.00707615
0.0174386
0.0418969
0.0979725
0.222557
0.489976
1.04245
2.13537
4.19022
7.81899
13.738
22.5195
34.3383
48.9561
65.8936
84.5994
104.544
125.263
146.367
167.541
188.535
209.151
229.232
248.652
267.301
285.078
301.869
317.534
331.883
344.663
355.581
364.376
370.923
375.124
378.497
382.663
388.702
396.614
405.601
414.787
423.575
431.668
438.958
445.418
451.047
455.86
459.886
463.159
465.713
467.586
468.81
469.447
469.564
469.298
468.863
468.471
468.218
468.08
468.007
467.965
467.938
467.92
467.906
467.897
467.89
467.884
467.877
467.87
467.862
467.852
467.838
467.81
467.75
467.616
467.324
466.721
465.549
463.407
459.733
453.834
444.99
432.675
416.823
398.122
378.156
359.344
344.284
334.369
328.923
326.154
324.892
324.424
324.242
324.181
324.175
324.217
324.343
324.397
324.429
324.319
324.253
323.869
323.475
322.228
320.501
315.784
308.805
291.289
262.364
204.839
98.2442
20.227
3.42826
0.555157
0.0889109
0.0141939
0.00226374
0.000360872
5.75143e-05
9.16472e-06
1.46012e-06
2.32582e-07
3.70411e-08
5.89803e-09
9.38954e-10
1.49427e-10
2.386e-11
3.75167e-12
6.11067e-13
2.55795e-13
1.27898e-13
0
-1.56319e-13
-1.98952e-13
-1.27898e-13
-1.84741e-13
-9.9476e-14
-1.7053e-13
-1.13687e-13
-1.27898e-13
-5.68434e-14
-1.42109e-14
1.42109e-13
1.13687e-13
1.27898e-13
5.68434e-14
1.42109e-13
1.13687e-13
7.10543e-14
7.10543e-14
1.56319e-13
1.84741e-13
7.10543e-14
1.42109e-14
7.10543e-14
5.68434e-14
-2.84217e-14
0
4.26326e-14
9.9476e-14
2.84217e-14
5.68434e-14
1.27898e-13
4.26326e-14
1.42109e-14
2.84217e-14
1.42109e-14
9.9476e-14
1.56319e-13
1.13687e-13
4.26326e-14
2.84217e-14
-1.42109e-14
-8.52651e-14
-8.52651e-14
-1.13687e-13
-5.68434e-14
-2.84217e-14
-5.68434e-14
-4.26326e-14
-4.26326e-14
-7.10543e-14
-2.84217e-14
-5.68434e-14
-4.26326e-14
-7.10543e-14
-5.68434e-14
9.9476e-14
1.42109e-13
2.55795e-13
2.27374e-13
1.84741e-13
1.13687e-13
1.42109e-14
4.26326e-14
7.10543e-14
4.26326e-14
8.52651e-14
2.84217e-14
0
-2.84217e-14
-8.52651e-14
-1.56319e-13
-1.84741e-13
-2.27374e-13
-1.84741e-13
-1.7053e-13
-1.42109e-14
0
-1.42109e-14
-5.68434e-14
-4.26326e-14
0
2.84217e-14
4.26326e-14
-2.84217e-14
-5.68434e-14
-2.84217e-14
2.84217e-14
7.10543e-14
1.27898e-13
7.10543e-14
4.26326e-14
1.42109e-14
2.84217e-14
-9.9476e-14
-9.9476e-14
-7.10543e-14
-1.13687e-13
-9.9476e-14
-8.52651e-14
-4.26326e-14
2.84217e-14
5.68434e-14
0
-8.52651e-14
-4.26326e-14
-4.26326e-14
-2.84217e-14
-2.84217e-14
-2.84217e-14
-5.68434e-14
-2.84217e-14
2.84217e-14
-1.42109e-14
-2.84217e-14
-4.26326e-14
-5.68434e-14
-4.26326e-14
0
2.84217e-14
-5.68434e-14
-7.10543e-14
-7.10543e-14
-8.52651e-14
-1.13687e-13
-7.10543e-14
-1.13687e-13
-7.10543e-14
-8.52651e-14
-2.84217e-14
-5.68434e-14
-1.42109e-14
2.84217e-14
5.68434e-14
7.10543e-14
7.10543e-14
-2.84217e-14
-2.84217e-14
-2.84217e-14
-5.68434e-14
-1.27898e-13
-1.27898e-13
-4.26326e-14
-4.26326e-14
-7.10543e-14
-4.26326e-14
1.42109e-14
2.84217e-14
9.9476e-14
7.10543e-14
4.26326e-14
-1.42109e-14
1.27898e-13
7.10543e-14
5.68434e-14
9.9476e-14
1.7053e-13
1.7053e-13
5.68434e-14
0
0
-9.9476e-14
-1.27898e-13
-1.42109e-13
-9.9476e-14
-1.56319e-13
-1.56319e-13
-5.68434e-14
-2.84217e-14
-7.10543e-14
-2.84217e-14
0
-1.42109e-14
0
2.84217e-14
7.10543e-14
-4.26326e-14
4.26326e-14
-1.27898e-13
-7.10543e-14
-1.42109e-14
1.42109e-13
1.7053e-13
1.13687e-13
5.68434e-14
1.13687e-13
7.10543e-14
1.42109e-14
0
1.42109e-14
0
-1.42109e-14
1.42109e-14
4.26326e-14
1.42109e-14
1.42109e-14
1.42109e-14
0
-1.42109e-14
1.42109e-14
2.84217e-14
0
-1.42109e-14
-8.52651e-14
-4.26326e-14
5.68434e-14
8.52651e-14
2.84217e-14
4.26326e-14
-1.42109e-14
-4.26326e-14
-5.68434e-14
-4.26326e-14
-1.42109e-14
1.42109e-14
0
-1.42109e-14
1.42109e-14
4.26326e-14
1.42109e-14
1.42109e-14
1.42109e-14
0
-1.42109e-14
2.84217e-14
4.26326e-14
0
-1.42109e-14
-1.84741e-13
-2.27374e-13
-2.13163e-13
-1.56319e-13
-1.13687e-13
4.26326e-14
1.13687e-13
1.27898e-13
8.52651e-14
1.13687e-13
7.10543e-14
9.9476e-14
5.68434e-14
1.42109e-14
0
1.42109e-14
0
0
-1.42109e-14
0
1.42109e-14
0
-1.42109e-14
1.42109e-14
2.84217e-14
-1.42109e-14
-1.42109e-14
4.26326e-14
7.10543e-14
1.42109e-14
2.84217e-14
-4.26326e-14
-5.68434e-14
-7.10543e-14
-1.42109e-14
0
0
0
0
0
1.42109e-14
0
0
-1.42109e-14
0
1.42109e-14
0
-1.42109e-14
1.42109e-14
2.84217e-14
-1.42109e-14
-1.42109e-14
4.26326e-14
7.10543e-14
1.42109e-14
2.84217e-14
-4.26326e-14
-5.68434e-14
-7.10543e-14
-1.42109e-14
0
0
0
0
0
1.42109e-14
0
0
-1.42109e-14
0
1.42109e-14
0
-1.42109e-14
1.42109e-14
2.84217e-14
-1.42109e-14
-1.42109e-14
4.26326e-14
7.10543e-14
1.42109e-14
2.84217e-14
-4.26326e-14
-5.68434e-14
-7.10543e-14
-1.42109e-14
0
0
1.42109e-14
5.68434e-14
1.27898e-13
1.42109e-13
9.9476e-14
8.52651e-14
8.52651e-14
5.68434e-14
-1.42109e-14
-5.68434e-14
-5.68434e-14
-8.52651e-14
-5.68434e-14
9.9476e-14
1.42109e-13
1.27898e-13
9.9476e-14
1.56319e-13
1.42109e-14
8.52651e-14
4.26326e-14
2.84217e-14
2.84217e-14
5.68434e-14
7.10543e-14
1.42109e-14
1.42109e-14
-1.42109e-14
-1.42109e-14
-1.42109e-14
-1.42109e-14
-1.42109e-14
4.26326e-14
2.84217e-14
0
1.42109e-14
-1.42109e-14
-1.42109e-14
-1.42109e-14
1.42109e-14
1.42109e-14
0
1.42109e-14
-1.42109e-14
0
-1.42109e-14
-2.84217e-14
-1.42109e-14
4.26326e-14
1.42109e-14
1.42109e-14
2.84217e-14
-1.42109e-14
-1.42109e-14
-1.42109e-14
-1.42109e-14
-1.42109e-14
4.26326e-14
2.84217e-14
0
1.42109e-14
-1.42109e-14
-1.42109e-14
-1.42109e-14
1.42109e-14
1.42109e-14
0
1.42109e-14
-1.42109e-14
0
-1.42109e-14
-2.84217e-14
-1.42109e-14
4.26326e-14
1.42109e-14
1.42109e-14
2.84217e-14
-1.42109e-14
-1.42109e-14
-1.42109e-14
-1.42109e-14
-1.42109e-14
4.26326e-14
2.84217e-14
0
1.42109e-14
-1.42109e-14
-1.42109e-14
-1.42109e-14
1.42109e-14
1.42109e-14
0
1.42109e-14
-1.42109e-14
0
-1.42109e-14
-2.84217e-14
-1.42109e-14
4.26326e-14
1.42109e-14
1.42109e-14
4.26326e-14
-1.42109e-14
0
0
)
;

boundaryField
{
    sides
    {
        type            calculated;
        value           uniform 0;
    }
    empty
    {
        type            empty;
    }
}


// ************************************************************************* //
