/*--------------------------------*- C++ -*----------------------------------*\
  =========                 |
  \\      /  F ield         | OpenFOAM: The Open Source CFD Toolbox
   \\    /   O peration     | Website:  https://openfoam.org
    \\  /    A nd           | Version:  13
     \\/     M anipulation  |
\*---------------------------------------------------------------------------*/
FoamFile
{
    format      ascii;
    class       volVectorField;
    location    "0.001";
    object      U;
}
// * * * * * * * * * * * * * * * * * * * * * * * * * * * * * * * * * * * * * //

dimensions      [0 1 -1 0 0 0 0];

internalField   nonuniform List<vector> 
1000
(
(-5.43652e-19 0 0)
(-7.29479e-15 0 0)
(5.847e-14 0 0)
(1.2422e-13 0 0)
(1.46332e-14 0 0)
(-4.54114e-18 0 0)
(-4.3855e-14 0 0)
(-1.02303e-13 0 0)
(-4.38522e-14 0 0)
(1.46149e-14 0 0)
(6.57582e-14 0 0)
(-7.28691e-15 0 0)
(5.84435e-14 0 0)
(-4.38417e-14 0 0)
(-7.30725e-14 0 0)
(-1.46246e-14 0 0)
(-5.075e-18 0 0)
(-7.31021e-15 0 0)
(-2.92124e-14 0 0)
(8.03796e-14 0 0)
(8.76916e-14 0 0)
(2.9223e-14 0 0)
(-1.09598e-13 0 0)
(-5.11621e-14 0 0)
(-9.99233e-18 0 0)
(-1.13207e-18 0 0)
(-7.29479e-15 0 0)
(5.847e-14 0 0)
(1.2422e-13 0 0)
(1.46332e-14 0 0)
(-4.54114e-18 0 0)
(-4.3855e-14 0 0)
(-1.02303e-13 0 0)
(-4.38522e-14 0 0)
(1.46149e-14 0 0)
(6.57582e-14 0 0)
(-7.28691e-15 0 0)
(5.84435e-14 0 0)
(-4.38417e-14 0 0)
(-7.30725e-14 0 0)
(-1.46246e-14 0 0)
(-5.075e-18 0 0)
(-7.31021e-15 0 0)
(-2.92124e-14 0 0)
(8.03796e-14 0 0)
(8.76916e-14 0 0)
(2.9223e-14 0 0)
(-1.09598e-13 0 0)
(-5.11621e-14 0 0)
(-9.99233e-18 0 0)
(-1.13207e-18 0 0)
(-7.29479e-15 0 0)
(5.847e-14 0 0)
(1.2422e-13 0 0)
(1.46332e-14 0 0)
(-4.54114e-18 0 0)
(-4.3855e-14 0 0)
(-1.02303e-13 0 0)
(-4.38522e-14 0 0)
(1.46149e-14 0 0)
(6.57582e-14 0 0)
(-7.28691e-15 0 0)
(5.84435e-14 0 0)
(-4.38417e-14 0 0)
(-7.30725e-14 0 0)
(-1.46246e-14 0 0)
(-5.075e-18 0 0)
(-7.31021e-15 0 0)
(-2.92124e-14 0 0)
(8.03796e-14 0 0)
(8.76916e-14 0 0)
(2.9223e-14 0 0)
(-1.09598e-13 0 0)
(-5.11621e-14 0 0)
(-9.99233e-18 0 0)
(-1.10969e-18 0 0)
(-7.29451e-15 0 0)
(6.57786e-14 0 0)
(1.31528e-13 0 0)
(1.69453e-17 0 0)
(3.65429e-14 0 0)
(8.03942e-14 0 0)
(2.19485e-14 0 0)
(7.3092e-14 0 0)
(1.02322e-13 0 0)
(1.53467e-13 0 0)
(1.24265e-13 0 0)
(8.03862e-14 0 0)
(3.65478e-14 0 0)
(2.1944e-14 0 0)
(1.16934e-13 0 0)
(1.09629e-13 0 0)
(4.38644e-14 0 0)
(9.50043e-14 0 0)
(5.11549e-14 0 0)
(2.19435e-14 0 0)
(-6.57995e-14 0 0)
(-7.30945e-15 0 0)
(2.64806e-17 0 0)
(-2.19301e-14 0 0)
(-7.31091e-14 0 0)
(-1.46161e-13 0 0)
(-1.02341e-13 0 0)
(-1.16946e-13 0 0)
(-1.09621e-13 0 0)
(-1.02321e-13 0 0)
(-1.16949e-13 0 0)
(-1.60791e-13 0 0)
(-1.09639e-13 0 0)
(-9.5016e-14 0 0)
(-8.76953e-14 0 0)
(2.92149e-14 0 0)
(-7.30715e-15 0 0)
(-3.65317e-14 0 0)
(-2.85846e-18 0 0)
(2.1915e-14 0 0)
(-2.19067e-14 0 0)
(4.3854e-14 0 0)
(1.09613e-13 0 0)
(5.84731e-14 0 0)
(2.92431e-14 0 0)
(5.11519e-14 0 0)
(-7.28903e-15 0 0)
(4.38348e-14 0 0)
(-1.46014e-14 0 0)
(3.65252e-14 0 0)
(-4.38348e-14 0 0)
(7.27983e-15 0 0)
(-1.31535e-13 0 0)
(-9.50171e-14 0 0)
(-8.03926e-14 0 0)
(-3.65458e-14 0 0)
(-4.10545e-18 0 0)
(1.46146e-14 0 0)
(1.46171e-14 0 0)
(7.31465e-15 0 0)
(3.65311e-14 0 0)
(-7.30618e-15 0 0)
(-3.65316e-14 0 0)
(-2.86313e-18 0 0)
(2.1915e-14 0 0)
(-2.19067e-14 0 0)
(4.3854e-14 0 0)
(1.09613e-13 0 0)
(5.84731e-14 0 0)
(2.92431e-14 0 0)
(5.11519e-14 0 0)
(-7.28903e-15 0 0)
(4.38348e-14 0 0)
(-1.46014e-14 0 0)
(3.65252e-14 0 0)
(-4.38348e-14 0 0)
(7.27983e-15 0 0)
(-1.31535e-13 0 0)
(-9.50171e-14 0 0)
(-8.03926e-14 0 0)
(-3.65458e-14 0 0)
(-4.10545e-18 0 0)
(1.46146e-14 0 0)
(1.46171e-14 0 0)
(7.31465e-15 0 0)
(3.65311e-14 0 0)
(-7.30618e-15 0 0)
(-3.65316e-14 0 0)
(-2.86313e-18 0 0)
(2.1915e-14 0 0)
(-2.19067e-14 0 0)
(4.38544e-14 0 0)
(1.16921e-13 0 0)
(5.11685e-14 0 0)
(9.50243e-14 0 0)
(1.75399e-13 0 0)
(1.09654e-13 0 0)
(1.53469e-13 0 0)
(1.02342e-13 0 0)
(1.60777e-13 0 0)
(2.92557e-14 0 0)
(8.03832e-14 0 0)
(5.11632e-14 0 0)
(7.30916e-14 0 0)
(1.2426e-13 0 0)
(1.24254e-13 0 0)
(5.1162e-14 0 0)
(2.92231e-14 0 0)
(-8.77065e-14 0 0)
(-1.53469e-13 0 0)
(-5.84869e-14 0 0)
(-8.77183e-14 0 0)
(-1.46151e-13 0 0)
(-1.31566e-13 0 0)
(-8.04015e-14 0 0)
(-5.84765e-14 0 0)
(-8.03928e-14 0 0)
(-9.50192e-14 0 0)
(-4.38768e-14 0 0)
(-1.24237e-13 0 0)
(-9.50101e-14 0 0)
(-8.77003e-14 0 0)
(-5.84862e-14 0 0)
(-9.49989e-14 0 0)
(-5.11581e-14 0 0)
(1.46182e-14 0 0)
(9.49909e-14 0 0)
(2.19349e-14 0 0)
(1.46204e-14 0 0)
(2.19198e-14 0 0)
(-2.92236e-14 0 0)
(-9.37708e-19 0 0)
(1.45938e-14 0 0)
(-9.49908e-14 0 0)
(-5.84583e-14 0 0)
(3.6539e-14 0 0)
(1.38836e-13 0 0)
(-7.27833e-15 0 0)
(5.11579e-14 0 0)
(8.04022e-14 0 0)
(1.53474e-13 0 0)
(1.02339e-13 0 0)
(1.16924e-13 0 0)
(8.03853e-14 0 0)
(1.46254e-14 0 0)
(-7.3078e-14 0 0)
(-2.19166e-14 0 0)
(-6.57891e-14 0 0)
(-4.38382e-14 0 0)
(-4.38535e-14 0 0)
(-9.50128e-14 0 0)
(-3.65735e-14 0 0)
(-1.46115e-14 0 0)
(-2.19191e-14 0 0)
(-7.32109e-15 0 0)
(-1.45982e-14 0 0)
(3.65248e-14 0 0)
(1.72903e-17 0 0)
(-1.24256e-13 0 0)
(-1.68113e-13 0 0)
(-2.55812e-13 0 0)
(-1.75412e-13 0 0)
(-2.99657e-13 0 0)
(-7.3094e-14 0 0)
(-2.19215e-14 0 0)
(1.16932e-13 0 0)
(1.53479e-13 0 0)
(8.77247e-14 0 0)
(2.19248e-13 0 0)
(1.09648e-13 0 0)
(-7.32101e-15 0 0)
(1.24267e-13 0 0)
(2.26563e-13 0 0)
(5.11864e-14 0 0)
(7.31066e-15 0 0)
(4.38314e-14 0 0)
(-7.29656e-15 0 0)
(2.19095e-14 0 0)
(-4.3834e-14 0 0)
(8.76886e-14 0 0)
(2.19423e-14 0 0)
(3.65455e-14 0 0)
(6.57788e-14 0 0)
(2.92414e-14 0 0)
(6.57634e-14 0 0)
(-1.46118e-14 0 0)
(-2.92326e-14 0 0)
(-7.30915e-14 0 0)
(-8.77004e-14 0 0)
(-2.92381e-14 0 0)
(1.38858e-13 0 0)
(2.55806e-13 0 0)
(6.58002e-14 0 0)
(5.84521e-14 0 0)
(-2.19023e-14 0 0)
(7.29387e-15 0 0)
(-3.65305e-14 0 0)
(6.57655e-14 0 0)
(3.65645e-14 0 0)
(6.57727e-14 0 0)
(5.11544e-14 0 0)
(7.3104e-15 0 0)
(-2.19213e-14 0 0)
(7.30865e-14 0 0)
(8.03962e-14 0 0)
(1.02328e-13 0 0)
(1.24242e-13 0 0)
(4.38538e-14 0 0)
(-5.11469e-14 0 0)
(1.45979e-14 0 0)
(-5.84714e-14 0 0)
(-8.03701e-14 0 0)
(2.19025e-14 0 0)
(-2.922e-14 0 0)
(2.19107e-14 0 0)
(-2.92228e-14 0 0)
(1.07536e-17 0 0)
(8.76821e-14 0 0)
(4.38489e-14 0 0)
(1.02354e-13 0 0)
(2.4849e-13 0 0)
(2.41209e-13 0 0)
(3.28905e-13 0 0)
(4.16602e-13 0 0)
(5.26222e-13 0 0)
(3.28902e-13 0 0)
(1.97345e-13 0 0)
(1.24258e-13 0 0)
(8.0411e-14 0 0)
(1.97309e-13 0 0)
(1.3156e-13 0 0)
(3.65633e-14 0 0)
(2.92438e-14 0 0)
(8.03921e-14 0 0)
(3.6544e-14 0 0)
(-7.30823e-14 0 0)
(-8.03759e-14 0 0)
(2.91999e-14 0 0)
(-7.30329e-15 0 0)
(2.19243e-14 0 0)
(-5.84614e-14 0 0)
(2.19256e-14 0 0)
(5.11579e-14 0 0)
(5.84805e-14 0 0)
(1.75406e-13 0 0)
(1.82724e-13 0 0)
(8.03938e-14 0 0)
(-1.46214e-14 0 0)
(-1.38855e-13 0 0)
(-1.1695e-13 0 0)
(-5.84724e-14 0 0)
(2.19276e-14 0 0)
(-7.31203e-15 0 0)
(1.46213e-14 0 0)
(-7.31607e-15 0 0)
(-9.50205e-14 0 0)
(-1.02319e-13 0 0)
(-1.9003e-13 0 0)
(-1.0963e-13 0 0)
(-7.30864e-14 0 0)
(-8.77032e-14 0 0)
(-2.92179e-14 0 0)
(1.89998e-13 0 0)
(3.65547e-14 0 0)
(4.38383e-14 0 0)
(-5.11545e-14 0 0)
(-1.02316e-13 0 0)
(-4.38551e-14 0 0)
(2.19297e-14 0 0)
(5.11628e-14 0 0)
(6.57695e-14 0 0)
(4.38577e-14 0 0)
(-5.84676e-14 0 0)
(2.4301e-19 0 0)
(-7.31908e-15 0 0)
(3.65488e-14 0 0)
(1.0963e-13 0 0)
(4.38653e-14 0 0)
(8.03999e-14 0 0)
(7.30812e-14 0 0)
(-2.92475e-14 0 0)
(-1.75395e-13 0 0)
(-2.33878e-13 0 0)
(-2.04662e-13 0 0)
(-1.68107e-13 0 0)
(-1.9003e-13 0 0)
(-4.38418e-14 0 0)
(8.0382e-14 0 0)
(3.6552e-14 0 0)
(2.92304e-14 0 0)
(-6.57759e-14 0 0)
(-6.57745e-14 0 0)
(-1.0594e-17 0 0)
(5.84744e-14 0 0)
(-1.52102e-18 0 0)
(7.30983e-15 0 0)
(5.84779e-14 0 0)
(1.16928e-13 0 0)
(1.38874e-13 0 0)
(1.31559e-13 0 0)
(8.04075e-14 0 0)
(1.02319e-13 0 0)
(1.24248e-13 0 0)
(8.0402e-14 0 0)
(3.65556e-14 0 0)
(1.16933e-13 0 0)
(1.24265e-13 0 0)
(1.97327e-13 0 0)
(1.46155e-13 0 0)
(-7.29568e-15 0 0)
(1.46303e-14 0 0)
(1.46196e-13 0 0)
(2.26558e-13 0 0)
(1.09624e-13 0 0)
(-1.53483e-13 0 0)
(-2.04642e-13 0 0)
(-2.11958e-13 0 0)
(-1.38875e-13 0 0)
(-1.46173e-13 0 0)
(-1.31559e-13 0 0)
(-6.57745e-14 0 0)
(-2.19352e-14 0 0)
(-6.57833e-14 0 0)
(7.3091e-14 0 0)
(8.77087e-14 0 0)
(1.38867e-13 0 0)
(1.09631e-13 0 0)
(5.11678e-14 0 0)
(1.31563e-13 0 0)
(5.84691e-14 0 0)
(1.46203e-14 0 0)
(4.38574e-14 0 0)
(3.65409e-14 0 0)
(-7.3036e-15 0 0)
(5.11542e-14 0 0)
(-1.46076e-14 0 0)
(8.03809e-14 0 0)
(8.04032e-14 0 0)
(8.04063e-14 0 0)
(4.38416e-14 0 0)
(-2.92387e-14 0 0)
(1.31575e-13 0 0)
(8.04021e-14 0 0)
(1.31549e-13 0 0)
(-1.46112e-14 0 0)
(2.92361e-14 0 0)
(-1.4641e-14 0 0)
(-1.82706e-13 0 0)
(-1.09639e-13 0 0)
(-7.30809e-14 0 0)
(-5.84715e-14 0 0)
(1.60794e-13 0 0)
(3.65454e-13 0 0)
(1.16943e-12 0 0)
(3.28174e-12 0 0)
(1.07369e-11 0 0)
(3.52805e-11 0 0)
(1.15694e-10 0 0)
(3.79819e-10 0 0)
(1.23333e-09 0 0)
(3.93532e-09 0 0)
(1.23803e-08 0 0)
(3.83139e-08 0 0)
(1.16655e-07 0 0)
(3.49204e-07 0 0)
(1.02732e-06 0 0)
(2.96852e-06 0 0)
(8.42063e-06 0 0)
(2.34339e-05 0 0)
(6.39349e-05 0 0)
(0.00017088 0 0)
(0.000447026 0 0)
(0.0011435 0 0)
(0.00285702 0 0)
(0.00696318 0 0)
(0.0165296 0 0)
(0.0381507 0 0)
(0.0854264 0 0)
(0.185095 0 0)
(0.386799 0 0)
(0.776212 0 0)
(1.48662 0 0)
(2.69416 0 0)
(4.57745 0 0)
(7.2536 0 0)
(10.7448 0 0)
(14.9981 0 0)
(19.9232 0 0)
(25.4203 0 0)
(31.3942 0 0)
(37.76 0 0)
(44.4451 0 0)
(51.3881 0 0)
(58.5372 0 0)
(65.8478 0 0)
(73.2793 0 0)
(80.7926 0 0)
(88.3444 0 0)
(95.881 0 0)
(103.328 0 0)
(110.576 0 0)
(117.468 0 0)
(123.788 0 0)
(129.289 0 0)
(133.758 0 0)
(137.141 0 0)
(139.485 0 0)
(141.867 0 0)
(145.486 0 0)
(150.899 0 0)
(157.946 0 0)
(166.127 0 0)
(174.986 0 0)
(184.232 0 0)
(193.706 0 0)
(203.328 0 0)
(213.053 0 0)
(222.854 0 0)
(232.714 0 0)
(242.625 0 0)
(252.565 0 0)
(262.526 0 0)
(272.409 0 0)
(282.179 0 0)
(291.523 0 0)
(300.119 0 0)
(307.22 0 0)
(312.194 0 0)
(315.095 0 0)
(316.578 0 0)
(317.318 0 0)
(317.715 0 0)
(317.949 0 0)
(318.095 0 0)
(318.184 0 0)
(318.234 0 0)
(318.257 0 0)
(318.264 0 0)
(318.261 0 0)
(318.256 0 0)
(318.251 0 0)
(318.245 0 0)
(318.239 0 0)
(318.233 0 0)
(318.228 0 0)
(318.222 0 0)
(318.217 0 0)
(318.213 0 0)
(318.208 0 0)
(318.206 0 0)
(318.205 0 0)
(318.212 0 0)
(318.226 0 0)
(318.257 0 0)
(318.294 0 0)
(318.339 0 0)
(318.359 0 0)
(318.34 0 0)
(318.281 0 0)
(318.204 0 0)
(318.199 0 0)
(318.229 0 0)
(318.183 0 0)
(318.204 0 0)
(318.215 0 0)
(318.191 0 0)
(318.17 0 0)
(318.162 0 0)
(318.15 0 0)
(318.148 0 0)
(318.057 0 0)
(318.072 0 0)
(317.895 0 0)
(317.89 0 0)
(317.483 0 0)
(317.151 0 0)
(316.221 0 0)
(313.983 0 0)
(311.418 0 0)
(301.281 0 0)
(291.147 0 0)
(253.722 0 0)
(198.571 0 0)
(81.7492 0 0)
(15.9684 0 0)
(2.62722 0 0)
(0.421094 0 0)
(0.067208 0 0)
(0.0107158 0 0)
(0.00170818 0 0)
(0.000272247 0 0)
(4.33835e-05 0 0)
(6.91219e-06 0 0)
(1.10111e-06 0 0)
(1.75374e-07 0 0)
(2.79268e-08 0 0)
(4.44607e-09 0 0)
(7.07667e-10 0 0)
(1.12634e-10 0 0)
(1.82718e-11 0 0)
(2.65881e-12 0 0)
(6.0217e-13 0 0)
(4.76288e-13 0 0)
(1.71874e-13 0 0)
(-1.4839e-13 0 0)
(-4.37517e-13 0 0)
(-3.59637e-13 0 0)
(-3.67463e-13 0 0)
(-3.43899e-13 0 0)
(-2.58124e-13 0 0)
(-3.20466e-13 0 0)
(-2.81291e-13 0 0)
(-1.7987e-13 0 0)
(-7.82455e-14 0 0)
(1.3289e-13 0 0)
(2.57979e-13 0 0)
(2.11211e-13 0 0)
(1.56402e-13 0 0)
(2.26689e-13 0 0)
(3.35859e-13 0 0)
(2.18801e-13 0 0)
(5.51108e-14 0 0)
(2.19001e-13 0 0)
(4.60777e-13 0 0)
(2.81383e-13 0 0)
(3.16344e-14 0 0)
(1.01648e-13 0 0)
(1.7171e-13 0 0)
(3.12518e-14 0 0)
(-7.78251e-14 0 0)
(1.57089e-14 0 0)
(2.49758e-13 0 0)
(1.25032e-13 0 0)
(3.15523e-14 0 0)
(1.954e-13 0 0)
(1.56488e-13 0 0)
(1.32969e-13 0 0)
(1.01287e-13 0 0)
(1.53962e-16 0 0)
(1.719e-13 0 0)
(3.12675e-13 0 0)
(2.8144e-13 0 0)
(1.09638e-13 0 0)
(1.57081e-14 0 0)
(1.32577e-13 0 0)
(-1.01625e-13 0 0)
(-2.10826e-13 0 0)
(-1.79801e-13 0 0)
(-1.01817e-13 0 0)
(-8.61016e-14 0 0)
(-1.32567e-13 0 0)
(-1.87584e-13 0 0)
(7.51672e-15 0 0)
(-7.04044e-14 0 0)
(-1.71679e-13 0 0)
(-8.5933e-14 0 0)
(-7.07199e-14 0 0)
(-8.5983e-14 0 0)
(-1.64023e-13 0 0)
(3.13828e-14 0 0)
(2.73577e-13 0 0)
(3.82934e-13 0 0)
(4.92615e-13 0 0)
(4.14401e-13 0 0)
(3.74993e-13 0 0)
(1.09485e-13 0 0)
(3.91274e-14 0 0)
(8.61749e-14 0 0)
(9.38259e-14 0 0)
(2.2647e-13 0 0)
(1.01823e-13 0 0)
(2.35049e-14 0 0)
(-1.5866e-14 0 0)
(-1.6413e-13 0 0)
(-2.26807e-13 0 0)
(-4.37546e-13 0 0)
(-3.67447e-13 0 0)
(-3.75428e-13 0 0)
(-4.0638e-13 0 0)
(-1.71877e-13 0 0)
(7.54877e-15 0 0)
(-3.90753e-14 0 0)
(-7.03865e-14 0 0)
(-2.10738e-13 0 0)
(1.55664e-14 0 0)
(3.11316e-14 0 0)
(1.09408e-13 0 0)
(-5.45519e-14 0 0)
(-4.6905e-14 0 0)
(-6.28182e-14 0 0)
(-3.12947e-14 0 0)
(1.32956e-13 0 0)
(1.72292e-13 0 0)
(1.87611e-13 0 0)
(2.10741e-13 0 0)
(-3.09743e-14 0 0)
(1.17235e-13 0 0)
(7.57048e-15 0 0)
(-2.57919e-13 0 0)
(-1.17374e-13 0 0)
(-2.57722e-13 0 0)
(-2.11033e-13 0 0)
(-9.40623e-14 0 0)
(-2.26417e-13 0 0)
(-1.57061e-14 0 0)
(1.79595e-13 0 0)
(7.03237e-14 0 0)
(-1.09568e-13 0 0)
(-2.41898e-13 0 0)
(-1.79822e-13 0 0)
(-3.13997e-14 0 0)
(-6.26249e-14 0 0)
(-1.17039e-13 0 0)
(1.99615e-17 0 0)
(-3.94504e-14 0 0)
(2.33517e-14 0 0)
(2.34944e-14 0 0)
(-1.87186e-13 0 0)
(-7.82254e-14 0 0)
(2.30306e-14 0 0)
(-1.95013e-13 0 0)
(-3.90936e-14 0 0)
(1.40241e-13 0 0)
(-7.02579e-14 0 0)
(-1.7948e-13 0 0)
(-1.48644e-13 0 0)
(-1.71886e-13 0 0)
(-2.03204e-13 0 0)
(-1.56651e-13 0 0)
(-2.03138e-13 0 0)
(-1.64145e-13 0 0)
(-1.79897e-13 0 0)
(-1.48455e-13 0 0)
(-7.82904e-14 0 0)
(-8.576e-14 0 0)
(5.48226e-14 0 0)
(1.48081e-13 0 0)
(9.38094e-14 0 0)
(1.56598e-13 0 0)
(6.24515e-14 0 0)
(-1.48466e-13 0 0)
(-1.57797e-14 0 0)
(-1.55999e-13 0 0)
(-2.42337e-13 0 0)
(-2.42782e-13 0 0)
(-1.87559e-13 0 0)
(-2.32672e-14 0 0)
(-1.48556e-13 0 0)
(-8.61041e-14 0 0)
(-1.55342e-14 0 0)
(2.33099e-14 0 0)
(8.62227e-14 0 0)
(1.40756e-13 0 0)
(1.56101e-13 0 0)
(2.36322e-14 0 0)
(1.25043e-13 0 0)
(2.34419e-13 0 0)
(9.38948e-14 0 0)
(1.79737e-13 0 0)
(2.19119e-13 0 0)
(3.75333e-13 0 0)
(3.04401e-13 0 0)
(7.81606e-14 0 0)
(-1.53448e-14 0 0)
(-1.09504e-13 0 0)
(-2.73578e-13 0 0)
(-2.97192e-13 0 0)
(-3.43638e-13 0 0)
(-2.97068e-13 0 0)
(-2.74056e-13 0 0)
(-2.65737e-13 0 0)
(-3.88914e-14 0 0)
(-8.6037e-14 0 0)
(-1.01733e-13 0 0)
(-1.55262e-14 0 0)
(-7.96443e-15 0 0)
(-3.88513e-14 0 0)
(4.69252e-14 0 0)
(1.32657e-13 0 0)
(1.56747e-16 0 0)
(-3.13185e-14 0 0)
(-1.09517e-13 0 0)
(-1.95359e-13 0 0)
(-9.38612e-14 0 0)
(1.09581e-13 0 0)
(3.44039e-13 0 0)
(4.21802e-13 0 0)
(1.64197e-13 0 0)
(1.01825e-13 0 0)
(2.26564e-13 0 0)
(6.27548e-14 0 0)
(3.12703e-14 0 0)
(-3.5289e-17 0 0)
(2.33222e-14 0 0)
(-6.23959e-14 0 0)
(7.85006e-15 0 0)
(8.58258e-14 0 0)
(3.13408e-14 0 0)
(4.68266e-14 0 0)
(-1.54982e-14 0 0)
(3.88732e-14 0 0)
(-7.78968e-14 0 0)
(1.56004e-14 0 0)
(7.80338e-14 0 0)
(1.56923e-14 0 0)
(-1.57568e-14 0 0)
(-1.01633e-13 0 0)
(-2.26402e-13 0 0)
(5.47735e-14 0 0)
(2.88871e-13 0 0)
(7.83188e-14 0 0)
(6.24956e-14 0 0)
(4.67661e-14 0 0)
(-1.17066e-13 0 0)
(-9.38809e-14 0 0)
(-1.40548e-13 0 0)
(-5.47708e-14 0 0)
(-7.84134e-15 0 0)
(2.33406e-14 0 0)
(-3.11392e-14 0 0)
(1.56723e-14 0 0)
(8.58281e-14 0 0)
(3.13421e-14 0 0)
(4.68239e-14 0 0)
(-1.54973e-14 0 0)
(3.88915e-14 0 0)
(-3.88337e-14 0 0)
(3.12578e-14 0 0)
(1.17102e-13 0 0)
(3.13577e-14 0 0)
(-7.96114e-15 0 0)
(-1.87663e-13 0 0)
(-4.76558e-13 0 0)
(-4.22086e-13 0 0)
(-3.13072e-13 0 0)
(-3.43915e-13 0 0)
(-5.47364e-14 0 0)
(1.95414e-13 0 0)
(2.58033e-13 0 0)
(1.71978e-13 0 0)
(1.95603e-13 0 0)
(2.18891e-13 0 0)
(1.6413e-13 0 0)
(1.79734e-13 0 0)
(8.60361e-14 0 0)
(7.81401e-15 0 0)
(1.56428e-14 0 0)
(3.12304e-14 0 0)
(2.33411e-14 0 0)
(-7.79396e-14 0 0)
(7.70178e-15 0 0)
(-7.77062e-15 0 0)
(2.33458e-14 0 0)
(-3.11532e-14 0 0)
(7.84696e-15 0 0)
(7.80331e-14 0 0)
(1.55844e-14 0 0)
(-7.79011e-14 0 0)
(1.5775e-14 0 0)
(2.41796e-13 0 0)
(6.27784e-14 0 0)
(7.02731e-14 0 0)
(-9.03896e-17 0 0)
(-1.71732e-13 0 0)
(-1.17279e-13 0 0)
(-7.81585e-14 0 0)
(-3.13056e-14 0 0)
(-7.82734e-15 0 0)
(7.77402e-15 0 0)
(-7.77678e-15 0 0)
(7.81081e-15 0 0)
(1.56426e-14 0 0)
(3.12304e-14 0 0)
(2.33411e-14 0 0)
(-7.79396e-14 0 0)
(7.70178e-15 0 0)
(-7.77062e-15 0 0)
(2.33458e-14 0 0)
(-3.11532e-14 0 0)
(7.84696e-15 0 0)
(7.80331e-14 0 0)
(1.55844e-14 0 0)
(-7.79011e-14 0 0)
(1.5775e-14 0 0)
(2.41796e-13 0 0)
(6.27784e-14 0 0)
(7.02731e-14 0 0)
(-9.03896e-17 0 0)
(-1.71732e-13 0 0)
(-1.17279e-13 0 0)
(-7.81585e-14 0 0)
(-3.13056e-14 0 0)
(-7.82734e-15 0 0)
(7.77402e-15 0 0)
(-7.77678e-15 0 0)
(7.81081e-15 0 0)
(1.56426e-14 0 0)
(3.12304e-14 0 0)
(2.33411e-14 0 0)
(-7.79396e-14 0 0)
(7.70178e-15 0 0)
(-7.77062e-15 0 0)
(2.33458e-14 0 0)
(-3.11532e-14 0 0)
(7.84696e-15 0 0)
(7.80331e-14 0 0)
(1.55844e-14 0 0)
(-7.79011e-14 0 0)
(1.5775e-14 0 0)
(2.41796e-13 0 0)
(6.27784e-14 0 0)
(7.02731e-14 0 0)
(-9.03896e-17 0 0)
(-1.71732e-13 0 0)
(-1.17279e-13 0 0)
(-7.81585e-14 0 0)
(-3.13056e-14 0 0)
(-7.82322e-15 0 0)
(7.83137e-15 0 0)
(7.82663e-14 0 0)
(2.26697e-13 0 0)
(2.96919e-13 0 0)
(2.57992e-13 0 0)
(2.26704e-13 0 0)
(1.5633e-13 0 0)
(1.64201e-13 0 0)
(7.80804e-14 0 0)
(-9.36416e-14 0 0)
(-1.25071e-13 0 0)
(-8.61752e-14 0 0)
(-2.264e-13 0 0)
(3.91324e-14 0 0)
(3.36014e-13 0 0)
(2.89083e-13 0 0)
(2.81443e-13 0 0)
(2.50218e-13 0 0)
(1.87591e-13 0 0)
(7.82191e-14 0 0)
(1.3292e-13 0 0)
(5.47456e-14 0 0)
(3.91236e-14 0 0)
(7.03789e-14 0 0)
(1.56261e-13 0 0)
(1.01685e-13 0 0)
(3.12342e-14 0 0)
(2.34061e-14 0 0)
(-2.3402e-14 0 0)
(-3.12463e-14 0 0)
(-2.34671e-14 0 0)
(-3.11755e-14 0 0)
(3.12736e-14 0 0)
(1.0137e-13 0 0)
(-2.32665e-14 0 0)
(-2.02225e-17 0 0)
(-3.40728e-17 0 0)
(-2.34298e-14 0 0)
(-3.12122e-14 0 0)
(1.9084e-17 0 0)
(4.67878e-14 0 0)
(7.85353e-15 0 0)
(1.41077e-17 0 0)
(-1.0946e-17 0 0)
(-7.82928e-15 0 0)
(-2.34411e-14 0 0)
(-3.12566e-14 0 0)
(-3.12408e-14 0 0)
(-7.78333e-15 0 0)
(3.89928e-14 0 0)
(7.87204e-15 0 0)
(3.12276e-14 0 0)
(2.34055e-14 0 0)
(-2.3402e-14 0 0)
(-3.12463e-14 0 0)
(-2.34671e-14 0 0)
(-3.11755e-14 0 0)
(3.12736e-14 0 0)
(1.0137e-13 0 0)
(-2.32665e-14 0 0)
(-2.02225e-17 0 0)
(-3.40728e-17 0 0)
(-2.34298e-14 0 0)
(-3.12122e-14 0 0)
(1.9084e-17 0 0)
(4.67878e-14 0 0)
(7.85353e-15 0 0)
(1.41077e-17 0 0)
(-1.0946e-17 0 0)
(-7.82928e-15 0 0)
(-2.34411e-14 0 0)
(-3.12566e-14 0 0)
(-3.12408e-14 0 0)
(-7.78333e-15 0 0)
(3.89928e-14 0 0)
(7.87204e-15 0 0)
(3.12276e-14 0 0)
(2.34055e-14 0 0)
(-2.3402e-14 0 0)
(-3.12463e-14 0 0)
(-2.34671e-14 0 0)
(-3.11755e-14 0 0)
(3.12736e-14 0 0)
(1.0137e-13 0 0)
(-2.32665e-14 0 0)
(-2.02225e-17 0 0)
(-3.40728e-17 0 0)
(-2.34298e-14 0 0)
(-3.12122e-14 0 0)
(1.9084e-17 0 0)
(4.67878e-14 0 0)
(7.85353e-15 0 0)
(1.41077e-17 0 0)
(-1.0946e-17 0 0)
(-7.82928e-15 0 0)
(-2.34411e-14 0 0)
(-3.12566e-14 0 0)
(-3.12491e-14 0 0)
(-1.5568e-14 0 0)
(5.45714e-14 0 0)
(-7.6979e-15 0 0)
(4.68024e-14 0 0)
(1.56345e-14 0 0)
(-1.55602e-14 0 0)
(-4.27057e-17 0 0)
(-7.80406e-15 0 0)
)
;

boundaryField
{
    sides
    {
        type            zeroGradient;
    }
    empty
    {
        type            empty;
    }
}


// ************************************************************************* //
