/*--------------------------------*- C++ -*----------------------------------*\
  =========                 |
  \\      /  F ield         | OpenFOAM: The Open Source CFD Toolbox
   \\    /   O peration     | Website:  https://openfoam.org
    \\  /    A nd           | Version:  13
     \\/     M anipulation  |
\*---------------------------------------------------------------------------*/
FoamFile
{
    format      ascii;
    class       volScalarField;
    location    "0.002";
    object      mag(U);
}
// * * * * * * * * * * * * * * * * * * * * * * * * * * * * * * * * * * * * * //

dimensions      [0 1 -1 0 0 0 0];

internalField   nonuniform List<scalar> 
1000
(
1.06006e-18
7.28022e-15
5.84684e-14
1.24186e-13
1.46495e-14
9.21982e-18
4.3857e-14
1.02279e-13
4.38505e-14
1.46116e-14
6.5735e-14
7.26289e-15
5.84136e-14
4.38295e-14
7.30549e-14
1.46314e-14
1.03826e-17
7.31167e-15
2.91876e-14
8.03601e-14
8.76757e-14
2.92088e-14
1.09559e-13
5.11613e-14
2.05001e-17
2.27553e-18
7.28022e-15
5.84684e-14
1.24186e-13
1.46495e-14
9.21982e-18
4.3857e-14
1.02279e-13
4.38505e-14
1.46116e-14
6.5735e-14
7.26289e-15
5.84136e-14
4.38295e-14
7.30549e-14
1.46314e-14
1.03826e-17
7.31167e-15
2.91876e-14
8.03601e-14
8.76757e-14
2.92088e-14
1.09559e-13
5.11613e-14
2.05001e-17
2.27553e-18
7.28022e-15
5.84684e-14
1.24186e-13
1.46495e-14
9.21982e-18
4.3857e-14
1.02279e-13
4.38505e-14
1.46116e-14
6.57349e-14
1.45712e-14
6.57245e-14
5.84911e-14
3.65098e-14
2.19364e-14
4.38457e-14
1.16941e-13
2.11995e-13
1.75381e-13
1.68076e-13
1.02302e-13
1.46884e-14
4.38568e-14
2.92452e-14
7.30871e-14
1.38875e-13
1.38864e-13
1.53453e-13
1.68115e-13
9.50096e-14
1.45971e-14
6.58019e-14
1.16934e-13
8.77134e-14
1.16915e-13
1.24256e-13
8.03857e-14
3.65569e-14
2.19626e-14
1.16915e-13
1.09617e-13
4.38851e-14
9.49887e-14
5.84646e-14
2.92579e-14
4.38094e-14
1.09618e-13
1.46146e-13
1.60808e-13
2.26585e-13
2.04625e-13
1.46204e-13
2.63128e-13
1.82713e-13
2.41178e-13
1.97354e-13
2.48488e-13
2.11967e-13
1.60799e-13
1.82692e-13
5.85216e-14
8.77055e-14
4.38275e-14
2.19206e-14
2.19032e-14
2.18855e-14
4.38539e-14
1.09589e-13
5.84764e-14
2.92527e-14
5.11383e-14
7.27e-15
4.38161e-14
1.4583e-14
3.65024e-14
4.38133e-14
7.24644e-15
1.31503e-13
9.50186e-14
8.03872e-14
3.65471e-14
8.78873e-18
1.46111e-14
1.4616e-14
7.32099e-15
3.65169e-14
7.30337e-15
3.65182e-14
5.98372e-18
2.19031e-14
2.18855e-14
4.38539e-14
1.09589e-13
5.84764e-14
2.92529e-14
6.57559e-14
7.34786e-15
5.8434e-14
3.49806e-17
5.11211e-14
3.96215e-17
5.11022e-14
2.19801e-14
3.65445e-14
2.19145e-14
5.84684e-14
4.38466e-14
3.65359e-14
7.30943e-14
9.50149e-14
1.24232e-13
7.30918e-14
2.19567e-14
5.11607e-14
1.02303e-13
9.50397e-14
1.02323e-13
8.03834e-14
1.31558e-13
1.09654e-13
1.60762e-13
1.09674e-13
1.75376e-13
1.24286e-13
1.8267e-13
5.12215e-14
1.38844e-13
1.38855e-13
8.03978e-14
7.29194e-15
2.1933e-14
3.65424e-14
2.92617e-14
8.76943e-14
2.18995e-14
1.46447e-14
8.04168e-14
1.46141e-13
1.60805e-13
2.11949e-13
1.46195e-13
2.1194e-13
1.38865e-13
2.92856e-14
8.03864e-14
1.24228e-13
6.57721e-14
7.33016e-15
5.11375e-14
7.30871e-14
1.53483e-13
2.04693e-13
1.60781e-13
1.24246e-13
1.60814e-13
5.84486e-14
7.3116e-15
8.76605e-14
9.50689e-14
8.77308e-14
3.65346e-14
7.14231e-17
2.91705e-14
6.6926e-18
9.14803e-18
2.91998e-14
2.9261e-14
7.30694e-14
1.24225e-13
7.31056e-14
8.04028e-14
7.3334e-15
1.45992e-14
1.38844e-13
5.84863e-14
2.63114e-13
2.63156e-13
1.75417e-13
3.289e-13
5.84699e-13
6.13935e-13
5.33581e-13
4.82376e-13
4.53138e-13
3.87375e-13
3.06968e-13
2.2658e-13
3.14265e-13
3.0699e-13
1.31543e-13
1.45986e-14
7.30606e-14
8.04354e-14
2.11901e-13
1.60815e-13
8.7738e-14
2.11971e-13
2.85003e-13
2.04718e-13
5.18904e-13
5.99292e-13
5.04333e-13
3.87346e-13
2.77781e-13
2.85014e-13
2.1199e-13
2.33882e-13
1.75401e-13
7.30966e-14
8.76927e-14
8.77316e-14
7.30984e-14
1.3888e-13
2.19265e-13
2.04655e-13
2.3387e-13
3.14243e-13
1.75454e-13
2.41165e-13
1.90074e-13
2.63079e-13
1.16978e-13
1.023e-13
2.19606e-14
5.11502e-14
5.11458e-14
7.3146e-15
2.18975e-14
7.3071e-14
8.03979e-14
1.02326e-13
1.24222e-13
4.38518e-14
5.11153e-14
1.45783e-14
9.50296e-14
1.75445e-13
1.31528e-13
2.04669e-13
1.38852e-13
1.24265e-13
8.04229e-14
1.38829e-13
1.02337e-13
2.04683e-13
3.94661e-13
5.1165e-13
5.70095e-13
7.01652e-13
8.84326e-13
7.96679e-13
6.94354e-13
6.57819e-13
6.43202e-13
6.7238e-13
5.92026e-13
5.62817e-13
6.13953e-13
5.62777e-13
5.0429e-13
3.65474e-13
4.16671e-13
4.09225e-13
2.92372e-13
3.65434e-13
2.99691e-13
3.14258e-13
8.0395e-14
6.57392e-14
3.6558e-14
2.92359e-14
3.65742e-14
1.24258e-13
1.02291e-13
7.30975e-14
2.48489e-13
2.26591e-13
2.19266e-13
2.77722e-13
1.82743e-13
1.75419e-13
1.68093e-13
1.07157e-17
8.76977e-14
8.77043e-14
5.85013e-14
1.09658e-13
1.82659e-13
1.53495e-13
1.09612e-13
2.92087e-14
1.46244e-14
3.65473e-14
7.32003e-15
1.46097e-14
3.65498e-14
4.38644e-14
1.16946e-13
2.33874e-13
5.84705e-14
3.65437e-14
2.19354e-14
5.11533e-14
5.84615e-14
5.84963e-14
1.46304e-14
1.53447e-13
6.57742e-14
2.19117e-14
5.1155e-14
3.6571e-14
8.04163e-14
1.09595e-13
1.53496e-13
9.49932e-14
3.65703e-14
1.46138e-14
1.31548e-13
6.57767e-14
2.19296e-14
8.03877e-14
2.19318e-14
5.85091e-14
3.36147e-13
3.65475e-14
1.5346e-13
5.11586e-14
2.92281e-14
1.02341e-13
2.99668e-13
1.97317e-13
1.38911e-13
2.99652e-13
1.00858e-12
1.9369e-12
4.55353e-12
1.20379e-11
3.21522e-11
8.48647e-11
2.29583e-10
6.11433e-10
1.61948e-09
4.24305e-09
1.09975e-08
2.81983e-08
7.1481e-08
1.79117e-07
4.4349e-07
1.08474e-06
2.61995e-06
6.24654e-06
1.46956e-05
3.41e-05
7.80062e-05
0.000175828
0.000390281
0.000852544
0.00183142
0.00386573
0.00800999
0.0162745
0.0323811
0.0629947
0.119594
0.221027
0.396371
0.686797
1.14392
1.8225
2.76904
4.01263
5.56252
7.41135
9.54056
11.9253
14.5381
17.3515
20.3396
23.4787
26.7479
30.1289
33.6058
37.1652
40.7954
44.4865
48.23
52.0187
55.8463
59.7073
63.5969
67.5108
71.445
75.3959
79.3599
83.3335
87.3127
91.2935
95.2707
99.2384
103.188
107.11
110.988
114.802
118.523
122.109
125.509
128.655
131.477
133.903
135.885
137.41
138.508
139.246
139.729
140.101
140.63
141.552
143.087
145.368
148.376
151.971
155.99
160.295
164.79
169.414
174.128
178.904
183.727
188.584
193.468
198.372
203.294
208.229
213.176
218.133
223.098
228.072
233.053
238.04
243.034
248.032
253.033
258.037
263.039
268.037
273.021
277.989
282.913
287.798
292.597
297.304
301.808
305.952
309.569
312.503
314.673
316.127
317.028
317.564
317.882
318.074
318.192
318.258
318.285
318.289
318.284
318.28
318.276
318.273
318.27
318.267
318.265
318.263
318.261
318.26
318.259
318.257
318.254
318.251
318.25
318.251
318.254
318.257
318.26
318.261
318.261
318.26
318.257
318.253
318.249
318.246
318.244
318.242
318.24
318.239
318.237
318.236
318.236
318.235
318.234
318.234
318.233
318.233
318.233
318.234
318.235
318.238
318.243
318.252
318.266
318.283
318.304
318.323
318.334
318.331
318.314
318.287
318.263
318.255
318.251
318.248
318.253
318.249
318.246
318.249
318.248
318.245
318.245
318.244
318.243
318.242
318.241
318.24
318.239
318.238
318.236
318.235
318.234
318.232
318.23
318.229
318.227
318.226
318.223
318.223
318.218
318.22
318.211
318.217
318.201
318.216
318.184
318.213
318.148
318.187
318.048
318.066
317.739
317.559
316.81
315.347
313.419
306.25
299.276
271.771
235.661
139.09
37.9229
6.36418
1.0328
0.164965
0.0262959
0.00419113
0.000667975
0.00010646
1.69672e-05
2.70417e-06
4.30984e-07
6.86901e-08
1.09475e-08
1.74482e-09
2.7802e-10
4.45892e-11
7.02909e-12
1.38397e-12
3.35987e-13
5.46184e-14
1.24785e-13
1.17134e-13
5.67272e-16
2.34062e-14
2.33272e-14
7.06381e-14
7.67871e-15
7.87474e-14
2.30581e-14
7.82001e-14
1.48106e-13
5.47907e-14
5.48637e-14
1.16738e-13
8.61106e-14
1.64385e-13
2.34219e-13
2.18807e-13
1.87974e-13
1.95438e-13
1.87631e-13
1.16728e-13
2.37582e-14
1.40831e-13
2.03344e-13
3.04581e-13
1.95417e-13
1.2561e-13
1.71961e-13
1.95512e-13
2.41749e-13
9.37136e-14
4.77492e-14
1.16573e-13
9.36761e-14
1.09115e-13
3.88163e-14
1.53009e-14
1.61511e-14
1.17141e-13
8.28705e-15
2.7284e-13
1.01764e-13
1.51743e-14
7.78912e-15
1.33064e-13
1.08842e-13
7.02237e-14
4.72949e-14
2.65822e-13
2.65296e-13
1.09565e-13
2.27157e-13
3.91081e-13
5.39335e-13
6.79489e-13
7.89551e-13
6.57506e-13
8.66944e-13
1.03205e-12
1.34537e-12
1.73519e-12
1.78203e-12
1.64972e-12
1.56328e-12
1.26647e-12
9.77612e-13
9.37985e-13
8.21045e-13
8.28837e-13
9.76817e-13
8.75663e-13
6.1728e-13
3.83154e-13
4.30561e-13
4.3773e-13
3.90728e-13
4.92617e-13
6.01438e-13
3.98974e-13
3.12234e-13
1.40539e-13
2.26234e-13
1.95503e-13
2.34303e-13
9.40013e-14
7.03475e-14
7.04849e-14
3.90266e-14
7.85352e-14
2.34403e-13
3.20167e-13
2.74009e-13
3.51483e-13
1.40395e-13
1.24649e-13
7.04536e-14
2.26452e-13
8.58301e-14
1.79043e-13
1.09552e-13
5.47852e-14
1.87538e-13
3.20133e-13
1.25607e-13
2.73043e-13
1.0941e-13
1.72497e-13
1.71724e-13
6.28844e-14
3.04756e-13
3.51689e-13
1.71928e-13
1.72195e-13
2.34161e-13
9.38217e-14
3.89135e-14
1.87855e-16
5.42322e-14
2.42125e-13
1.48251e-13
1.57181e-14
1.0182e-13
3.20362e-13
4.68646e-13
5.31776e-13
4.53425e-13
3.59331e-13
1.49032e-13
1.48517e-13
7.03545e-14
6.26516e-14
1.4867e-13
3.90887e-13
4.92076e-13
2.73808e-13
1.87621e-13
2.66017e-13
3.6716e-13
4.85125e-13
5.7836e-13
5.70512e-13
4.77005e-13
5.07803e-13
2.65773e-13
8.02305e-16
8.60758e-14
7.71235e-14
2.73279e-13
2.73578e-13
2.1132e-13
1.55996e-13
8.62018e-14
2.3418e-13
2.73602e-13
2.1892e-13
1.56606e-13
1.95213e-13
2.34413e-13
3.96572e-14
3.59485e-13
5.39419e-13
6.25041e-13
5.16176e-13
4.14103e-13
3.51839e-13
3.2855e-13
2.65543e-13
2.50727e-13
4.30125e-13
5.62047e-13
1.4041e-13
1.24518e-13
5.47102e-14
3.10711e-14
3.04698e-13
3.35825e-13
3.2055e-13
2.89626e-13
2.0331e-13
3.04844e-13
3.75103e-13
3.04985e-13
3.59554e-13
4.06335e-13
2.81491e-13
3.12675e-13
3.2088e-13
4.21987e-13
4.22257e-13
2.9689e-13
3.44128e-13
3.51889e-13
2.73272e-13
1.79653e-13
1.62737e-14
3.28554e-13
6.71281e-13
5.00797e-13
4.92394e-13
5.39225e-13
4.46021e-13
3.20498e-13
1.17402e-13
1.32848e-13
2.42323e-13
3.43883e-13
3.51879e-13
4.06508e-13
5.00324e-13
3.75175e-13
2.03055e-13
1.33378e-13
9.35888e-14
3.91831e-14
2.32355e-14
3.10217e-14
7.88726e-15
7.78384e-14
1.55467e-14
7.7616e-14
1.59425e-14
2.4124e-13
6.3e-14
7.01683e-14
2.2334e-16
1.71414e-13
1.17276e-13
7.81521e-14
3.13395e-14
7.84446e-15
7.73127e-15
7.73529e-15
7.80241e-15
1.56506e-14
3.11903e-14
2.32212e-14
7.76909e-14
7.58197e-15
7.72294e-15
2.32351e-14
3.10217e-14
7.88726e-15
7.78384e-14
1.55467e-14
7.7616e-14
1.59425e-14
2.4124e-13
6.3e-14
7.01683e-14
2.2334e-16
1.71414e-13
1.17276e-13
7.81521e-14
3.13395e-14
7.83047e-15
7.9173e-15
7.83753e-14
2.26582e-13
2.88932e-13
2.18874e-13
1.25052e-13
7.83586e-14
1.48501e-13
1.79413e-13
7.07441e-14
1.01642e-13
7.56993e-15
4.62424e-14
3.14375e-14
2.97275e-13
1.64354e-13
7.84232e-14
3.43869e-13
3.43861e-13
3.13042e-13
5.15751e-13
5.00316e-13
4.22213e-13
4.22147e-13
1.95231e-13
3.11385e-14
5.71905e-17
9.38319e-14
1.71819e-13
1.01643e-13
4.06489e-13
5.70843e-13
4.45618e-13
3.66934e-13
1.87955e-13
1.71972e-13
7.03113e-14
1.55845e-14
3.11513e-14
3.8367e-17
4.66668e-14
7.88966e-15
2.86676e-17
2.22375e-17
7.84058e-15
2.34297e-14
3.1242e-14
3.12027e-14
7.75601e-15
3.88863e-14
7.94125e-15
3.11848e-14
2.33489e-14
2.33479e-14
3.12212e-14
2.34814e-14
3.10738e-14
3.12734e-14
1.01102e-13
2.30757e-14
4.01569e-17
6.8747e-17
2.34063e-14
3.11516e-14
3.83589e-17
4.66668e-14
7.88966e-15
2.86676e-17
2.22375e-17
7.84058e-15
2.34297e-14
3.1242e-14
3.12027e-14
7.75601e-15
3.88863e-14
7.94125e-15
3.11848e-14
2.33489e-14
2.33479e-14
3.12212e-14
2.34814e-14
3.10738e-14
3.12734e-14
1.01102e-13
2.30757e-14
4.01569e-17
6.8747e-17
2.34063e-14
3.11516e-14
3.83589e-17
4.66668e-14
7.88966e-15
2.86676e-17
2.22375e-17
7.84058e-15
2.34298e-14
3.1242e-14
3.12207e-14
1.5502e-14
5.43981e-14
7.55219e-15
4.66901e-14
1.5629e-14
1.54838e-14
8.26815e-17
7.79117e-15
)
;

boundaryField
{
    sides
    {
        type            calculated;
        value           nonuniform List<scalar> 2(7.79117e-15 1.06006e-18);
    }
    empty
    {
        type            empty;
    }
}


// ************************************************************************* //
