/*--------------------------------*- C++ -*----------------------------------*\
  =========                 |
  \\      /  F ield         | OpenFOAM: The Open Source CFD Toolbox
   \\    /   O peration     | Website:  https://openfoam.org
    \\  /    A nd           | Version:  13
     \\/     M anipulation  |
\*---------------------------------------------------------------------------*/
FoamFile
{
    format      ascii;
    class       volScalarField;
    location    "0.002";
    object      p;
}
// * * * * * * * * * * * * * * * * * * * * * * * * * * * * * * * * * * * * * //

dimensions      [1 -1 -2 0 0 0 0];

internalField   nonuniform List<scalar> 
1000
(
100000
100000
100000
100000
100000
100000
100000
100000
100000
100000
100000
100000
100000
100000
100000
100000
100000
100000
100000
100000
100000
100000
100000
100000
100000
100000
100000
100000
100000
100000
100000
100000
100000
100000
100000
100000
100000
100000
100000
100000
100000
100000
100000
100000
100000
100000
100000
100000
100000
100000
100000
100000
100000
100000
100000
100000
100000
100000
100000
100000
100000
100000
100000
100000
100000
100000
100000
100000
100000
100000
100000
100000
100000
100000
100000
100000
100000
100000
100000
100000
100000
100000
100000
100000
100000
100000
100000
100000
100000
100000
100000
100000
100000
100000
100000
100000
100000
100000
100000
100000
100000
100000
100000
100000
100000
100000
100000
100000
100000
100000
100000
100000
100000
100000
100000
100000
100000
100000
100000
100000
100000
100000
100000
100000
100000
100000
100000
100000
100000
100000
100000
100000
100000
100000
100000
100000
100000
100000
100000
100000
100000
100000
100000
100000
100000
100000
100000
100000
100000
100000
100000
100000
100000
100000
100000
100000
100000
100000
100000
100000
100000
100000
100000
100000
100000
100000
100000
100000
100000
100000
100000
100000
100000
100000
100000
100000
100000
100000
100000
100000
100000
100000
100000
100000
100000
100000
100000
100000
100000
100000
100000
100000
100000
100000
100000
100000
100000
100000
100000
100000
100000
100000
100000
100000
100000
100000
100000
100000
100000
100000
100000
100000
100000
100000
100000
100000
100000
100000
100000
100000
100000
100000
100000
100000
100000
100000
100000
100000
100000
100000
100000
100000
100000
100000
100000
100000
100000
100000
100000
100000
100000
100000
100000
100000
100000
100000
100000
100000
100000
100000
100000
100000
100000
100000
100000
100000
100000
100000
100000
100000
100000
100000
100000
100000
100000
100000
100000
100000
100000
100000
100000
100000
100000
100000
100000
100000
100000
100000
100000
100000
100000
100000
100000
100000
100000
100000
100000
100000
100000
100000
100000
100000
100000
100000
100000
100000
100000
100000
100000
100000
100000
100000
100000
100000
100000
100000
100000
100000
100000
100000
100000
100000
100000
100000
100000
100000
100000
100000
100000
100000
100000
100000
100000
100000
100000
100000
100000
100000
100000
100000
100000
100000
100000
100000
100000
100000
100000
100000
100000
100000
100000
100000
100000
100000
100000
100000
100000
100000
100000
100000
100000
100000
100000
100000
100000
100000
100000
100000
100000
100000
100000
100000
100000
100000
100000
100000
100000
100000
100000
100000
100000
100000
100000
100000
100000
100000
100000
100000
100000
100000
100000
100000
100000
100000
100000
100000
100000
100000
100000
100000
100000
100000
100000
100000
100000
100000
100000
100000
100000
100000
100000
100000
100000
100000
100000
99999.9
99999.9
99999.7
99999.3
99998.6
99997
99993.9
99987.9
99976.6
99955.5
99917.8
99852.6
99744.6
99575
99323.6
98973.7
98515.7
97947.5
97273.3
96501.7
95643.9
94711.4
93716.1
92668.8
91579.4
90456.5
89307.6
88139.1
86956.5
85764.4
84566.7
83366.6
82166.9
80969.9
79777.6
78591.6
77413.5
76244.6
75085.9
73938.5
72803.5
71681.8
70574.5
69482.8
68408.2
67352.5
66318.2
65308.7
64328.9
63385.2
62486.8
61645.3
60875.1
60191.5
59609
59136.6
58775.4
58516.8
58342.1
58228.8
58147.6
58043
57860.7
57558.9
57113.4
56531
55842.4
55082.9
54280.9
53455.9
52620.3
51782.1
50946.3
50116.1
49293.7
48480.4
47677.1
46884.4
46102.8
45332.4
44573.4
43825.8
43089.5
42364.5
41650.9
40948.5
40257.2
39577.2
38908.4
38251
37605.6
36972.1
36352.9
35746.7
35160.1
34587.8
34036
33517.9
33048.6
32644.4
32320.1
32082.2
31923.7
31825.8
31767.8
31733.3
31712.5
31699.7
31692.5
31689.5
31689
31689.5
31690
31690.4
31690.7
31691
31691.3
31691.5
31691.7
31691.8
31691.9
31691.9
31692.1
31692.4
31692.6
31692.7
31692.5
31692
31691.5
31691.1
31690.8
31690.7
31690.8
31691.1
31691.5
31691.8
31692.1
31692.3
31692.4
31692.5
31692.5
31692.6
31692.6
31692.5
31692.5
31692.4
31692.3
31692.2
31692.1
31692.1
31692
31692.1
31692.4
31692.9
31693.9
31695.4
31697.5
31699.8
31701.9
31703
31702.5
31700
31696.2
31692.8
31691.4
31690.6
31690.2
31690.6
31690.3
31689.9
31690.2
31690.1
31689.8
31689.7
31689.6
31689.5
31689.4
31689.3
31689.2
31689
31688.9
31688.7
31688.6
31688.4
31688.2
31688.1
31687.8
31687.7
31687.4
31687.4
31687
31687.1
31686.3
31686.8
31685.4
31686.6
31684
31686.7
31681
31686.9
31673.1
31685
31650
31670.8
31579.8
31589.6
31335.4
31236.7
30394.2
29787.3
27067.2
23945.5
16899.3
11630.8
10287.1
10070.2
10035.2
10029.6
10028.7
10028.5
10028.5
10028.5
10028.5
10028.5
10028.5
10028.5
10028.5
10028.5
10028.5
10028.5
10028.5
10028.5
10028.5
10028.5
10028.5
10028.5
10028.5
10028.5
10028.5
10028.5
10028.5
10028.5
10028.5
10028.5
10028.5
10028.5
10028.5
10028.5
10028.5
10028.5
10028.5
10028.5
10028.5
10028.5
10028.5
10028.5
10028.5
10028.5
10028.5
10028.5
10028.5
10028.5
10028.5
10028.5
10028.5
10028.5
10028.5
10028.5
10028.5
10028.5
10028.5
10028.5
10028.5
10028.5
10028.5
10028.5
10028.5
10028.5
10028.5
10028.5
10028.5
10028.5
10028.5
10028.5
10028.5
10028.5
10028.5
10028.5
10028.5
10028.5
10028.5
10028.5
10028.5
10028.5
10028.5
10028.5
10028.5
10028.5
10028.5
10028.5
10028.5
10028.5
10028.5
10028.5
10028.5
10028.5
10028.5
10028.5
10028.5
10028.5
10028.5
10028.5
10028.5
10028.5
10028.5
10028.5
10028.5
10028.5
10028.5
10028.5
10028.5
10028.5
10028.5
10028.5
10028.5
10028.5
10028.5
10028.5
10028.5
10028.5
10028.5
10028.5
10028.5
10028.5
10028.5
10028.5
10028.5
10028.5
10028.5
10028.5
10028.5
10028.5
10028.5
10028.5
10028.5
10028.5
10028.5
10028.5
10028.5
10028.5
10028.5
10028.5
10028.5
10028.5
10028.5
10028.5
10028.5
10028.5
10028.5
10028.5
10028.5
10028.5
10028.5
10028.5
10028.5
10028.5
10028.5
10028.5
10028.5
10028.5
10028.5
10028.5
10028.5
10028.5
10028.5
10028.5
10028.5
10028.5
10028.5
10028.5
10028.5
10028.5
10028.5
10028.5
10028.5
10028.5
10028.5
10028.5
10028.5
10028.5
10028.5
10028.5
10028.5
10028.5
10028.5
10028.5
10028.5
10028.5
10028.5
10028.5
10028.5
10028.5
10028.5
10028.5
10028.5
10028.5
10028.5
10028.5
10028.5
10028.5
10028.5
10028.5
10028.5
10028.5
10028.5
10028.5
10028.5
10028.5
10028.5
10028.5
10028.5
10028.5
10028.5
10028.5
10028.5
10028.5
10028.5
10028.5
10028.5
10028.5
10028.5
10028.5
10028.5
10028.5
10028.5
10028.5
10028.5
10028.5
10028.5
10028.5
10028.5
10028.5
10028.5
10028.5
10028.5
10028.5
10028.5
10028.5
10028.5
10028.5
10028.5
10028.5
10028.5
10028.5
10028.5
10028.5
10028.5
10028.5
10028.5
10028.5
10028.5
10028.5
10028.5
10028.5
10028.5
10028.5
10028.5
10028.5
10028.5
10028.5
10028.5
10028.5
10028.5
10028.5
10028.5
10028.5
10028.5
10028.5
10028.5
10028.5
10028.5
10028.5
10028.5
10028.5
10028.5
10028.5
10028.5
10028.5
10028.5
10028.5
10028.5
10028.5
10028.5
10028.5
10028.5
10028.5
10028.5
10028.5
10028.5
10028.5
10028.5
10028.5
10028.5
10028.5
10028.5
10028.5
10028.5
10028.5
10028.5
10028.5
10028.5
10028.5
10028.5
10028.5
10028.5
10028.5
10028.5
10028.5
10028.5
10028.5
10028.5
10028.5
10028.5
10028.5
10028.5
10028.5
10028.5
10028.5
10028.5
10028.5
10028.5
10028.5
10028.5
10028.5
10028.5
10028.5
10028.5
10028.5
10028.5
10028.5
10028.5
10028.5
10028.5
10028.5
10028.5
10028.5
10028.5
10028.5
10028.5
10028.5
10028.5
10028.5
10028.5
10028.5
10028.5
10028.5
10028.5
10028.5
10028.5
10028.5
10028.5
10028.5
10028.5
10028.5
10028.5
10028.5
10028.5
10028.5
10028.5
10028.5
10028.5
10028.5
10028.5
10028.5
10028.5
10028.5
10028.5
10028.5
10028.5
10028.5
10028.5
10028.5
10028.5
10028.5
10028.5
10028.5
10028.5
10028.5
10028.5
10028.5
10028.5
10028.5
10028.5
10028.5
10028.5
)
;

boundaryField
{
    sides
    {
        type            zeroGradient;
    }
    empty
    {
        type            empty;
    }
}


// ************************************************************************* //
