/*--------------------------------*- C++ -*----------------------------------*\
  =========                 |
  \\      /  F ield         | OpenFOAM: The Open Source CFD Toolbox
   \\    /   O peration     | Website:  https://openfoam.org
    \\  /    A nd           | Version:  13
     \\/     M anipulation  |
\*---------------------------------------------------------------------------*/
FoamFile
{
    format      ascii;
    class       surfaceScalarField;
    location    "0.002";
    object      phi;
}
// * * * * * * * * * * * * * * * * * * * * * * * * * * * * * * * * * * * * * //

dimensions      [1 0 -1 0 0 0 0];

internalField   nonuniform List<scalar> 
999
(
0
0
4.54747e-13
2.27374e-13
0
0
-3.41061e-13
-3.41061e-13
0
2.27374e-13
1.13687e-13
1.13687e-13
1.13687e-13
-2.27374e-13
-2.27374e-13
0
0
-1.13687e-13
1.13687e-13
4.54747e-13
3.41061e-13
-2.27374e-13
-3.41061e-13
0
0
0
0
4.54747e-13
2.27374e-13
0
0
-3.41061e-13
-3.41061e-13
0
2.27374e-13
1.13687e-13
1.13687e-13
1.13687e-13
-2.27374e-13
-2.27374e-13
0
0
-1.13687e-13
1.13687e-13
4.54747e-13
3.41061e-13
-2.27374e-13
-3.41061e-13
0
0
0
0
4.54747e-13
2.27374e-13
0
0
-3.41061e-13
-3.41061e-13
0
2.27374e-13
1.13687e-13
1.13687e-13
2.27374e-13
0
-2.27374e-13
0
2.27374e-13
7.95808e-13
7.95808e-13
6.82121e-13
5.68434e-13
1.13687e-13
1.13687e-13
1.13687e-13
0
5.68434e-13
5.68434e-13
5.68434e-13
6.82121e-13
5.68434e-13
1.13687e-13
0
4.54747e-13
3.41061e-13
3.41061e-13
4.54747e-13
4.54747e-13
2.27374e-13
2.27374e-13
3.41061e-13
4.54747e-13
3.41061e-13
3.41061e-13
3.41061e-13
1.13687e-13
1.13687e-13
0
-4.54747e-13
-6.82121e-13
-7.95808e-13
-7.95808e-13
-6.82121e-13
-7.95808e-13
-9.09495e-13
-9.09495e-13
-9.09495e-13
-7.95808e-13
-1.02318e-12
-5.68434e-13
-7.95808e-13
-3.41061e-13
-4.54747e-13
-3.41061e-13
-1.13687e-13
0
0
0
3.41061e-13
3.41061e-13
2.27374e-13
2.27374e-13
1.13687e-13
1.13687e-13
1.13687e-13
1.13687e-13
0
-1.13687e-13
-2.27374e-13
-4.54747e-13
-4.54747e-13
-2.27374e-13
0
0
0
0
1.13687e-13
1.13687e-13
-1.13687e-13
-1.13687e-13
0
0
0
3.41061e-13
3.41061e-13
2.27374e-13
2.27374e-13
1.13687e-13
1.13687e-13
1.13687e-13
1.13687e-13
1.13687e-13
1.13687e-13
2.27374e-13
-1.13687e-13
-1.13687e-13
0
3.41061e-13
1.13687e-13
3.41061e-13
3.41061e-13
4.54747e-13
4.54747e-13
1.13687e-13
1.13687e-13
3.41061e-13
4.54747e-13
4.54747e-13
4.54747e-13
4.54747e-13
4.54747e-13
5.68434e-13
5.68434e-13
5.68434e-13
5.68434e-13
5.68434e-13
4.54747e-13
3.41061e-13
4.54747e-13
4.54747e-13
1.13687e-13
0
2.27374e-13
1.13687e-13
-3.41061e-13
-3.41061e-13
0
-1.13687e-13
-4.54747e-13
-6.82121e-13
-6.82121e-13
-6.82121e-13
-6.82121e-13
-6.82121e-13
-2.27374e-13
-1.13687e-13
-4.54747e-13
-4.54747e-13
-1.13687e-13
-1.13687e-13
-2.27374e-13
-4.54747e-13
-7.95808e-13
-6.82121e-13
-4.54747e-13
-5.68434e-13
-5.68434e-13
-1.13687e-13
2.27374e-13
4.54747e-13
4.54747e-13
3.41061e-13
0
-1.13687e-13
-1.13687e-13
1.13687e-13
0
2.27374e-13
2.27374e-13
4.54747e-13
3.41061e-13
2.27374e-13
1.13687e-13
0
-2.27374e-13
-3.41061e-13
-2.27374e-13
-1.36424e-12
-5.68434e-13
-1.25056e-12
-1.7053e-12
-2.38742e-12
-2.38742e-12
-1.93268e-12
-1.47793e-12
-2.04636e-12
-1.25056e-12
-1.13687e-12
-7.95808e-13
-1.7053e-12
-6.82121e-13
-3.41061e-13
2.27374e-13
-1.13687e-13
1.02318e-12
4.54747e-13
7.95808e-13
5.68434e-13
1.02318e-12
6.82121e-13
1.25056e-12
2.50111e-12
2.04636e-12
1.81899e-12
1.25056e-12
1.47793e-12
6.82121e-13
1.25056e-12
5.68434e-13
7.95808e-13
2.27374e-13
6.82121e-13
2.27374e-13
5.68434e-13
6.82121e-13
1.25056e-12
5.68434e-13
1.13687e-12
7.95808e-13
9.09495e-13
9.09495e-13
9.09495e-13
6.82121e-13
4.54747e-13
2.27374e-13
1.13687e-13
2.27374e-13
1.13687e-13
1.13687e-13
0
3.41061e-13
3.41061e-13
5.68434e-13
2.27374e-13
-1.13687e-13
-1.13687e-13
2.27374e-13
5.68434e-13
5.68434e-13
5.68434e-13
7.95808e-13
3.41061e-13
4.54747e-13
2.27374e-13
4.54747e-13
5.68434e-13
1.47793e-12
1.59162e-12
2.50111e-12
2.38742e-12
3.41061e-12
3.63798e-12
2.84217e-12
2.72848e-12
2.27374e-12
2.6148e-12
2.72848e-12
2.27374e-12
2.27374e-12
2.38742e-12
2.04636e-12
1.93268e-12
1.36424e-12
1.81899e-12
1.59162e-12
1.47793e-12
1.25056e-12
1.13687e-12
1.02318e-12
-3.41061e-13
-2.27374e-13
-2.27374e-13
-2.27374e-13
-1.13687e-13
-4.54747e-13
-3.41061e-13
-3.41061e-13
-1.02318e-12
-7.95808e-13
-1.36424e-12
-7.95808e-13
-6.82121e-13
-6.82121e-13
-4.54747e-13
3.41061e-13
3.41061e-13
3.41061e-13
3.41061e-13
6.82121e-13
5.68434e-13
5.68434e-13
1.13687e-13
-1.13687e-13
-1.13687e-13
-2.27374e-13
0
-2.27374e-13
0
-2.27374e-13
-7.95808e-13
-6.82121e-13
1.13687e-13
1.13687e-13
-2.27374e-13
-3.41061e-13
-1.13687e-13
-1.13687e-13
-2.27374e-13
-6.82121e-13
-1.13687e-13
2.27374e-13
2.27374e-13
3.41061e-13
2.27374e-13
5.68434e-13
5.68434e-13
2.27374e-13
2.27374e-13
3.41061e-13
3.41061e-13
2.27374e-13
-1.13687e-13
-2.27374e-13
-1.13687e-13
-6.82121e-13
-9.09495e-13
3.41061e-13
4.54747e-13
-1.13687e-13
-1.13687e-13
1.02318e-12
1.02318e-12
5.68434e-13
5.68434e-13
2.27374e-12
5.45697e-12
1.14824e-11
2.89901e-11
7.71934e-11
2.04864e-10
5.49562e-10
1.47202e-09
3.90912e-09
1.02887e-08
2.67903e-08
6.90128e-08
1.7581e-07
4.42776e-07
1.10209e-06
2.71028e-06
6.58316e-06
1.57878e-05
3.73695e-05
8.7265e-05
0.000200954
0.000456113
0.00101984
0.00224498
0.00486203
0.0103518
0.0216483
0.0444223
0.089338
0.17584
0.338148
0.633994
1.15573
2.04091
3.47462
5.67194
8.83613
13.1101
18.5497
25.1283
32.7595
41.3215
50.6769
60.6869
71.2201
82.1571
93.3923
104.835
116.406
128.041
139.685
151.291
162.821
174.244
185.533
196.667
207.627
218.398
228.968
239.326
249.463
259.37
269.042
278.47
287.647
296.566
305.215
313.582
321.649
329.39
336.771
343.742
350.24
356.181
361.472
366.022
369.761
372.669
374.794
376.235
377.118
377.722
378.34
379.318
380.987
383.587
387.142
391.454
396.238
401.243
406.288
411.258
416.084
420.724
425.157
429.369
433.353
437.106
440.63
443.926
446.998
449.85
452.486
454.911
457.131
459.15
460.973
462.606
464.055
465.323
466.416
467.339
468.097
468.694
469.138
469.434
469.59
469.616
469.525
469.338
469.09
468.82
468.572
468.377
468.241
468.155
468.103
468.071
468.052
468.04
468.033
468.03
468.028
468.026
468.024
468.022
468.02
468.018
468.016
468.014
468.012
468.011
468.009
468.007
468.005
468.003
468
467.999
467.997
467.995
467.994
467.992
467.99
467.988
467.985
467.982
467.979
467.976
467.973
467.969
467.965
467.959
467.949
467.933
467.905
467.854
467.763
467.603
467.327
466.863
466.104
464.901
463.052
460.303
456.356
450.897
443.641
434.393
423.13
410.062
395.681
380.756
366.276
353.33
342.858
335.32
330.478
327.634
326.084
325.287
324.899
324.736
324.675
324.655
324.651
324.654
324.668
324.691
324.714
324.729
324.737
324.742
324.744
324.746
324.748
324.748
324.747
324.746
324.744
324.741
324.738
324.735
324.73
324.727
324.721
324.718
324.709
324.708
324.693
324.693
324.658
324.655
324.559
324.518
324.233
323.994
323.103
321.902
318.532
313.582
300.688
280.292
237.223
154.445
47.3553
8.18445
1.35688
0.218056
0.0348251
0.00555393
0.00088536
0.000141117
2.24912e-05
3.58459e-06
5.71303e-07
9.10531e-08
1.45119e-08
2.31292e-09
3.68587e-10
5.88045e-11
9.37916e-12
1.62004e-12
3.2685e-13
8.52651e-14
-2.84217e-14
-4.26326e-14
-5.68434e-14
-2.84217e-14
-2.84217e-14
0
4.26326e-14
-7.10543e-14
-2.84217e-14
2.84217e-14
2.84217e-14
5.68434e-14
0
-5.68434e-14
0
-4.26326e-14
-9.9476e-14
-8.52651e-14
-1.27898e-13
-7.10543e-14
-7.10543e-14
-5.68434e-14
-1.42109e-14
-4.26326e-14
-8.52651e-14
-1.13687e-13
-1.13687e-13
-8.52651e-14
-8.52651e-14
-7.10543e-14
-8.52651e-14
-5.68434e-14
-5.68434e-14
-2.84217e-14
-1.42109e-14
2.84217e-14
2.84217e-14
-4.26326e-14
0
4.26326e-14
2.84217e-14
-8.52651e-14
-7.10543e-14
-7.10543e-14
-1.42109e-14
-1.42109e-14
-4.26326e-14
0
0
-7.10543e-14
-1.27898e-13
-8.52651e-14
-8.52651e-14
-1.27898e-13
-2.13163e-13
-2.84217e-13
-3.2685e-13
-3.69482e-13
-3.41061e-13
-4.26326e-13
-5.82645e-13
-7.53175e-13
-8.2423e-13
-8.10019e-13
-7.53175e-13
-6.11067e-13
-5.68434e-13
-4.40536e-13
-4.26326e-13
-3.69482e-13
-4.26326e-13
-4.54747e-13
-3.55271e-13
-2.13163e-13
-2.27374e-13
-1.98952e-13
-1.98952e-13
-1.98952e-13
-2.55795e-13
-2.41585e-13
-1.13687e-13
-4.26326e-14
4.26326e-14
8.52651e-14
7.10543e-14
7.10543e-14
1.42109e-14
4.26326e-14
5.68434e-14
2.84217e-14
7.10543e-14
1.42109e-13
1.42109e-13
1.42109e-13
8.52651e-14
-1.42109e-14
-4.26326e-14
-7.10543e-14
-9.9476e-14
1.42109e-14
5.68434e-14
2.84217e-14
1.42109e-14
-1.56319e-13
-1.13687e-13
-8.52651e-14
-5.68434e-14
-7.10543e-14
-7.10543e-14
-8.52651e-14
-8.52651e-14
-1.7053e-13
-1.13687e-13
-7.10543e-14
-8.52651e-14
-9.9476e-14
1.42109e-14
5.68434e-14
-2.84217e-14
-4.26326e-14
-9.9476e-14
-2.84217e-14
0
9.9476e-14
1.13687e-13
2.55795e-13
2.13163e-13
1.84741e-13
1.13687e-13
9.9476e-14
5.68434e-14
-1.42109e-14
1.42109e-14
1.42109e-13
1.98952e-13
1.98952e-13
7.10543e-14
9.9476e-14
1.84741e-13
1.98952e-13
2.55795e-13
2.55795e-13
2.55795e-13
2.27374e-13
2.13163e-13
4.26326e-14
4.26326e-14
0
-4.26326e-14
-1.42109e-13
-9.9476e-14
-1.13687e-13
-1.42109e-14
-8.52651e-14
-1.13687e-13
-1.13687e-13
-7.10543e-14
-7.10543e-14
-1.13687e-13
-5.68434e-14
-8.52651e-14
-2.27374e-13
-2.55795e-13
-2.55795e-13
-2.13163e-13
-1.84741e-13
-1.56319e-13
-1.27898e-13
-1.27898e-13
-1.7053e-13
-2.27374e-13
-8.52651e-14
-1.42109e-14
5.68434e-14
-4.26326e-14
8.52651e-14
8.52651e-14
1.42109e-13
1.42109e-13
1.42109e-13
1.27898e-13
1.56319e-13
1.56319e-13
1.56319e-13
1.56319e-13
1.7053e-13
1.27898e-13
1.56319e-13
1.98952e-13
1.98952e-13
1.7053e-13
1.42109e-13
1.56319e-13
1.27898e-13
9.9476e-14
4.26326e-14
5.68434e-14
2.27374e-13
2.70006e-13
2.41585e-13
2.55795e-13
2.27374e-13
1.84741e-13
8.52651e-14
5.68434e-14
7.10543e-14
1.42109e-13
1.56319e-13
1.7053e-13
2.27374e-13
2.27374e-13
1.13687e-13
7.10543e-14
4.26326e-14
2.84217e-14
2.84217e-14
0
-1.42109e-14
1.42109e-14
2.84217e-14
-1.42109e-14
-1.42109e-14
4.26326e-14
7.10543e-14
1.42109e-14
2.84217e-14
-4.26326e-14
-5.68434e-14
-7.10543e-14
-1.42109e-14
0
0
0
0
0
1.42109e-14
0
0
-1.42109e-14
0
1.42109e-14
0
-1.42109e-14
1.42109e-14
2.84217e-14
-1.42109e-14
-1.42109e-14
4.26326e-14
7.10543e-14
1.42109e-14
2.84217e-14
-4.26326e-14
-5.68434e-14
-7.10543e-14
-1.42109e-14
0
0
1.42109e-14
5.68434e-14
1.27898e-13
1.27898e-13
7.10543e-14
4.26326e-14
5.68434e-14
7.10543e-14
5.68434e-14
2.84217e-14
2.84217e-14
-1.42109e-14
2.84217e-14
-1.27898e-13
-1.42109e-13
-2.84217e-14
1.27898e-13
1.98952e-13
1.13687e-13
1.98952e-13
2.41585e-13
2.13163e-13
1.84741e-13
1.7053e-13
1.42109e-14
-5.68434e-14
2.84217e-14
-1.13687e-13
-2.84217e-14
1.27898e-13
2.70006e-13
2.55795e-13
1.84741e-13
1.13687e-13
5.68434e-14
8.52651e-14
0
-1.42109e-14
-1.42109e-14
1.42109e-14
1.42109e-14
0
1.42109e-14
-1.42109e-14
0
-1.42109e-14
-2.84217e-14
-1.42109e-14
4.26326e-14
1.42109e-14
1.42109e-14
2.84217e-14
-1.42109e-14
-1.42109e-14
-1.42109e-14
-1.42109e-14
-1.42109e-14
4.26326e-14
2.84217e-14
0
1.42109e-14
-1.42109e-14
-1.42109e-14
-1.42109e-14
1.42109e-14
1.42109e-14
0
1.42109e-14
-1.42109e-14
0
-1.42109e-14
-2.84217e-14
-1.42109e-14
4.26326e-14
1.42109e-14
1.42109e-14
2.84217e-14
-1.42109e-14
-1.42109e-14
-1.42109e-14
-1.42109e-14
-1.42109e-14
4.26326e-14
2.84217e-14
0
1.42109e-14
-1.42109e-14
-1.42109e-14
-1.42109e-14
1.42109e-14
1.42109e-14
0
1.42109e-14
-1.42109e-14
0
-1.42109e-14
-2.84217e-14
-1.42109e-14
4.26326e-14
1.42109e-14
1.42109e-14
4.26326e-14
-2.84217e-14
-1.42109e-14
0
)
;

boundaryField
{
    sides
    {
        type            calculated;
        value           uniform 0;
    }
    empty
    {
        type            empty;
    }
}


// ************************************************************************* //
