/*--------------------------------*- C++ -*----------------------------------*\
  =========                 |
  \\      /  F ield         | OpenFOAM: The Open Source CFD Toolbox
   \\    /   O peration     | Website:  https://openfoam.org
    \\  /    A nd           | Version:  13
     \\/     M anipulation  |
\*---------------------------------------------------------------------------*/
FoamFile
{
    format      ascii;
    class       volScalarField;
    location    "0.002";
    object      rho;
}
// * * * * * * * * * * * * * * * * * * * * * * * * * * * * * * * * * * * * * //

dimensions      [1 -3 0 0 0 0 0];

internalField   nonuniform List<scalar> 
1000
(
0.995488
0.995488
0.995488
0.995488
0.995488
0.995488
0.995488
0.995488
0.995488
0.995488
0.995488
0.995488
0.995488
0.995488
0.995488
0.995488
0.995488
0.995488
0.995488
0.995488
0.995488
0.995488
0.995488
0.995488
0.995488
0.995488
0.995488
0.995488
0.995488
0.995488
0.995488
0.995488
0.995488
0.995488
0.995488
0.995488
0.995488
0.995488
0.995488
0.995488
0.995488
0.995488
0.995488
0.995488
0.995488
0.995488
0.995488
0.995488
0.995488
0.995488
0.995488
0.995488
0.995488
0.995488
0.995488
0.995488
0.995488
0.995488
0.995488
0.995488
0.995488
0.995488
0.995488
0.995488
0.995488
0.995488
0.995488
0.995488
0.995488
0.995488
0.995488
0.995488
0.995488
0.995488
0.995488
0.995488
0.995488
0.995488
0.995488
0.995488
0.995488
0.995488
0.995488
0.995488
0.995488
0.995488
0.995488
0.995488
0.995488
0.995488
0.995488
0.995488
0.995488
0.995488
0.995488
0.995488
0.995488
0.995488
0.995488
0.995488
0.995488
0.995488
0.995488
0.995488
0.995488
0.995488
0.995488
0.995488
0.995488
0.995488
0.995488
0.995488
0.995488
0.995488
0.995488
0.995488
0.995488
0.995488
0.995488
0.995488
0.995488
0.995488
0.995488
0.995488
0.995488
0.995488
0.995488
0.995488
0.995488
0.995488
0.995488
0.995488
0.995488
0.995488
0.995488
0.995488
0.995488
0.995488
0.995488
0.995488
0.995488
0.995488
0.995488
0.995488
0.995488
0.995488
0.995488
0.995488
0.995488
0.995488
0.995488
0.995488
0.995488
0.995488
0.995488
0.995488
0.995488
0.995488
0.995488
0.995488
0.995488
0.995488
0.995488
0.995488
0.995488
0.995488
0.995488
0.995488
0.995488
0.995488
0.995488
0.995488
0.995488
0.995488
0.995488
0.995488
0.995488
0.995488
0.995488
0.995488
0.995488
0.995488
0.995488
0.995488
0.995488
0.995488
0.995488
0.995488
0.995488
0.995488
0.995488
0.995488
0.995488
0.995488
0.995488
0.995488
0.995488
0.995488
0.995488
0.995488
0.995488
0.995488
0.995488
0.995488
0.995488
0.995488
0.995488
0.995488
0.995488
0.995488
0.995488
0.995488
0.995488
0.995488
0.995488
0.995488
0.995488
0.995488
0.995488
0.995488
0.995488
0.995488
0.995488
0.995488
0.995488
0.995488
0.995488
0.995488
0.995488
0.995488
0.995488
0.995488
0.995488
0.995488
0.995488
0.995488
0.995488
0.995488
0.995488
0.995488
0.995488
0.995488
0.995488
0.995488
0.995488
0.995488
0.995488
0.995488
0.995488
0.995488
0.995488
0.995488
0.995488
0.995488
0.995488
0.995488
0.995488
0.995488
0.995488
0.995488
0.995488
0.995488
0.995488
0.995488
0.995488
0.995488
0.995488
0.995488
0.995488
0.995488
0.995488
0.995488
0.995488
0.995488
0.995488
0.995488
0.995488
0.995488
0.995488
0.995488
0.995488
0.995488
0.995488
0.995488
0.995488
0.995488
0.995488
0.995488
0.995488
0.995488
0.995488
0.995488
0.995488
0.995488
0.995488
0.995488
0.995488
0.995488
0.995488
0.995488
0.995488
0.995488
0.995488
0.995488
0.995488
0.995488
0.995488
0.995488
0.995488
0.995488
0.995488
0.995488
0.995488
0.995488
0.995488
0.995488
0.995488
0.995488
0.995488
0.995488
0.995488
0.995488
0.995488
0.995488
0.995488
0.995488
0.995488
0.995488
0.995488
0.995488
0.995488
0.995488
0.995488
0.995488
0.995488
0.995488
0.995488
0.995488
0.995488
0.995488
0.995488
0.995488
0.995488
0.995488
0.995488
0.995488
0.995488
0.995488
0.995488
0.995488
0.995488
0.995488
0.995488
0.995488
0.995488
0.995488
0.995488
0.995488
0.995488
0.995488
0.995488
0.995488
0.995488
0.995488
0.995488
0.995488
0.995488
0.995488
0.995488
0.995488
0.995488
0.995488
0.995488
0.995488
0.995488
0.995488
0.995488
0.995488
0.995488
0.995488
0.995488
0.995488
0.995488
0.995488
0.995488
0.995488
0.995488
0.995488
0.995488
0.995488
0.995488
0.995488
0.995488
0.995488
0.995488
0.995488
0.995488
0.995488
0.995488
0.995488
0.995488
0.995488
0.995488
0.995488
0.995487
0.995487
0.995487
0.995485
0.995483
0.995477
0.995466
0.995444
0.995401
0.99532
0.995169
0.994899
0.994433
0.99366
0.992445
0.990644
0.988135
0.984846
0.98076
0.975903
0.970334
0.964126
0.957362
0.950121
0.942479
0.934504
0.926257
0.917789
0.909147
0.900369
0.891486
0.882527
0.873516
0.864472
0.855412
0.846351
0.837301
0.828275
0.81928
0.810328
0.801426
0.792581
0.783804
0.775101
0.766485
0.757967
0.749563
0.741294
0.73319
0.725289
0.71765
0.710347
0.703481
0.697173
0.691557
0.686756
0.682854
0.679862
0.677713
0.676277
0.675371
0.674551
0.673337
0.671222
0.667721
0.662553
0.655797
0.647808
0.638997
0.629694
0.620124
0.610431
0.600707
0.591011
0.58138
0.571839
0.562404
0.553086
0.543891
0.534823
0.525886
0.517081
0.508408
0.499866
0.491457
0.483178
0.475029
0.46701
0.459121
0.451363
0.443737
0.436249
0.428901
0.421718
0.414685
0.40788
0.401242
0.39484
0.38883
0.383386
0.378697
0.374934
0.372175
0.370336
0.369201
0.368527
0.368128
0.367885
0.367737
0.367654
0.367619
0.367613
0.367618
0.367621
0.367623
0.367626
0.367628
0.367629
0.367631
0.367631
0.367631
0.367631
0.367631
0.367632
0.367633
0.367635
0.367635
0.367632
0.367628
0.367623
0.367619
0.367615
0.367613
0.367613
0.367615
0.367617
0.367619
0.36762
0.36762
0.367619
0.367617
0.367612
0.367603
0.367587
0.367556
0.367499
0.367399
0.367224
0.366928
0.36644
0.365659
0.364445
0.36262
0.359968
0.356249
0.351229
0.344722
0.336644
0.327072
0.316283
0.304773
0.293227
0.282454
0.273251
0.266183
0.261351
0.258374
0.256685
0.255794
0.255348
0.255143
0.255064
0.255038
0.255032
0.255034
0.255042
0.255058
0.255076
0.255091
0.255101
0.255107
0.255111
0.255113
0.255116
0.255118
0.255119
0.255119
0.255119
0.255119
0.255117
0.255117
0.255114
0.255114
0.25511
0.255112
0.255104
0.25511
0.255094
0.25511
0.255076
0.25511
0.255029
0.255098
0.254893
0.255015
0.254482
0.254547
0.253056
0.252508
0.247519
0.244132
0.227757
0.209429
0.164756
0.128581
0.118434
0.116681
0.116392
0.116346
0.116339
0.116338
0.116337
0.116337
0.116337
0.116337
0.116337
0.116337
0.116337
0.116337
0.116337
0.116337
0.116337
0.116337
0.116337
0.116337
0.116337
0.116337
0.116337
0.116337
0.116337
0.116337
0.116337
0.116337
0.116337
0.116337
0.116337
0.116337
0.116337
0.116337
0.116337
0.116337
0.116337
0.116337
0.116337
0.116337
0.116337
0.116337
0.116337
0.116337
0.116337
0.116337
0.116337
0.116337
0.116337
0.116337
0.116337
0.116337
0.116337
0.116337
0.116337
0.116337
0.116337
0.116337
0.116337
0.116337
0.116337
0.116337
0.116337
0.116337
0.116337
0.116337
0.116337
0.116337
0.116337
0.116337
0.116337
0.116337
0.116337
0.116337
0.116337
0.116337
0.116337
0.116337
0.116337
0.116337
0.116337
0.116337
0.116337
0.116337
0.116337
0.116337
0.116337
0.116337
0.116337
0.116337
0.116337
0.116337
0.116337
0.116337
0.116337
0.116337
0.116337
0.116337
0.116337
0.116337
0.116337
0.116337
0.116337
0.116337
0.116337
0.116337
0.116337
0.116337
0.116337
0.116337
0.116337
0.116337
0.116337
0.116337
0.116337
0.116337
0.116337
0.116337
0.116337
0.116337
0.116337
0.116337
0.116337
0.116337
0.116337
0.116337
0.116337
0.116337
0.116337
0.116337
0.116337
0.116337
0.116337
0.116337
0.116337
0.116337
0.116337
0.116337
0.116337
0.116337
0.116337
0.116337
0.116337
0.116337
0.116337
0.116337
0.116337
0.116337
0.116337
0.116337
0.116337
0.116337
0.116337
0.116337
0.116337
0.116337
0.116337
0.116337
0.116337
0.116337
0.116337
0.116337
0.116337
0.116337
0.116337
0.116337
0.116337
0.116337
0.116337
0.116337
0.116337
0.116337
0.116337
0.116337
0.116337
0.116337
0.116337
0.116337
0.116337
0.116337
0.116337
0.116337
0.116337
0.116337
0.116337
0.116337
0.116337
0.116337
0.116337
0.116337
0.116337
0.116337
0.116337
0.116337
0.116337
0.116337
0.116337
0.116337
0.116337
0.116337
0.116337
0.116337
0.116337
0.116337
0.116337
0.116337
0.116337
0.116337
0.116337
0.116337
0.116337
0.116337
0.116337
0.116337
0.116337
0.116337
0.116337
0.116337
0.116337
0.116337
0.116337
0.116337
0.116337
0.116337
0.116337
0.116337
0.116337
0.116337
0.116337
0.116337
0.116337
0.116337
0.116337
0.116337
0.116337
0.116337
0.116337
0.116337
0.116337
0.116337
0.116337
0.116337
0.116337
0.116337
0.116337
0.116337
0.116337
0.116337
0.116337
0.116337
0.116337
0.116337
0.116337
0.116337
0.116337
0.116337
0.116337
0.116337
0.116337
0.116337
0.116337
0.116337
0.116337
0.116337
0.116337
0.116337
0.116337
0.116337
0.116337
0.116337
0.116337
0.116337
0.116337
0.116337
0.116337
0.116337
0.116337
0.116337
0.116337
0.116337
0.116337
0.116337
0.116337
0.116337
0.116337
0.116337
0.116337
0.116337
0.116337
0.116337
0.116337
0.116337
0.116337
0.116337
0.116337
0.116337
0.116337
0.116337
0.116337
0.116337
0.116337
0.116337
0.116337
0.116337
0.116337
0.116337
0.116337
0.116337
0.116337
0.116337
0.116337
0.116337
0.116337
0.116337
0.116337
0.116337
0.116337
0.116337
0.116337
0.116337
0.116337
0.116337
0.116337
0.116337
0.116337
0.116337
0.116337
0.116337
0.116337
0.116337
0.116337
0.116337
0.116337
0.116337
0.116337
0.116337
0.116337
0.116337
0.116337
0.116337
0.116337
0.116337
0.116337
0.116337
0.116337
0.116337
0.116337
0.116337
0.116337
0.116337
0.116337
0.116337
0.116337
0.116337
0.116337
0.116337
0.116337
0.116337
0.116337
0.116337
0.116337
0.116337
0.116337
0.116337
0.116337
0.116337
0.116337
0.116337
0.116337
0.116337
0.116337
0.116337
0.116337
0.116337
0.116337
0.116337
0.116337
0.116337
0.116337
0.116337
0.116337
)
;

boundaryField
{
    sides
    {
        type            calculated;
        value           nonuniform List<scalar> 2(0.116337 0.995488);
    }
    empty
    {
        type            empty;
    }
}


// ************************************************************************* //
