/*--------------------------------*- C++ -*----------------------------------*\
  =========                 |
  \\      /  F ield         | OpenFOAM: The Open Source CFD Toolbox
   \\    /   O peration     | Website:  https://openfoam.org
    \\  /    A nd           | Version:  13
     \\/     M anipulation  |
\*---------------------------------------------------------------------------*/
FoamFile
{
    format      ascii;
    class       volScalarField;
    location    "0.004";
    object      mag(U);
}
// * * * * * * * * * * * * * * * * * * * * * * * * * * * * * * * * * * * * * //

dimensions      [0 1 -1 0 0 0 0];

internalField   nonuniform List<scalar> 
1000
(
2.08456e-18
7.25111e-15
5.84652e-14
1.24118e-13
1.46821e-14
1.85651e-17
4.38609e-14
1.02233e-13
4.38472e-14
1.46049e-14
6.56886e-14
7.2149e-15
5.8354e-14
4.38052e-14
7.30197e-14
1.46452e-14
2.09943e-17
7.31456e-15
2.91381e-14
8.0321e-14
8.76439e-14
2.91803e-14
1.09483e-13
5.11599e-14
4.15019e-17
4.55237e-18
7.25103e-15
6.57741e-14
1.31427e-13
6.45728e-17
7.32635e-15
2.19183e-14
4.37611e-14
2.19348e-14
9.50026e-14
1.60704e-13
1.02415e-13
5.83648e-14
2.18856e-14
3.66115e-14
1.16919e-13
8.03866e-14
1.16941e-13
1.97408e-13
1.75352e-13
1.82667e-13
2.26525e-13
1.60932e-13
1.09635e-13
2.9218e-14
2.19312e-14
9.49859e-14
1.46101e-14
2.04558e-13
1.68131e-13
8.77006e-14
1.6078e-13
1.60732e-13
1.3888e-13
3.65443e-14
7.23355e-15
1.75373e-13
3.07029e-13
2.19218e-13
4.38136e-14
1.38903e-13
1.827e-13
7.29903e-15
5.1142e-14
1.82708e-13
1.09566e-13
1.97258e-13
1.82584e-13
2.7039e-13
7.28691e-15
1.60768e-13
1.31605e-13
3.14236e-13
2.19245e-13
2.7044e-13
3.2153e-13
6.5838e-14
7.23966e-15
1.60757e-13
2.1928e-13
1.46151e-13
1.53469e-13
1.46172e-13
1.5351e-13
1.75474e-13
1.46132e-13
3.581e-13
5.11688e-13
6.06575e-13
3.72751e-13
2.26621e-13
2.26479e-13
1.60853e-13
7.3138e-14
1.09605e-13
7.31124e-14
2.19565e-14
2.18748e-14
6.73979e-18
7.31645e-15
1.31523e-13
8.77255e-14
1.53472e-13
1.24265e-13
1.16962e-13
1.46141e-13
1.60839e-13
2.77738e-13
2.04611e-13
2.55826e-13
2.70453e-13
2.63072e-13
2.26584e-13
2.48548e-13
2.26576e-13
2.48481e-13
2.48527e-13
1.89982e-13
1.46254e-13
2.11887e-13
1.38948e-13
1.24168e-13
2.9319e-14
7.31427e-14
6.57829e-14
2.19453e-14
7.30952e-14
1.90039e-13
8.04117e-14
3.65407e-14
1.46323e-14
7.30343e-14
3.65512e-14
5.99616e-17
5.84676e-14
1.46126e-13
1.02382e-13
1.02321e-13
8.03573e-14
1.31557e-13
1.1698e-13
1.60737e-13
1.1702e-13
1.82647e-13
1.31631e-13
1.89927e-13
5.85747e-14
1.09553e-13
9.50892e-14
1.4614e-13
8.04323e-14
9.49925e-14
2.92445e-14
2.1898e-14
5.11246e-14
2.19219e-14
2.77004e-17
2.19214e-14
1.46704e-14
6.57882e-14
1.4611e-13
9.50569e-14
1.02314e-13
8.04096e-14
1.31534e-13
1.09678e-13
1.60727e-13
1.09715e-13
1.75336e-13
1.24321e-13
1.82604e-13
5.13005e-14
1.38813e-13
1.3883e-13
8.03882e-14
7.24742e-15
2.19278e-14
3.65102e-14
2.92571e-14
8.76455e-14
2.19143e-14
7.26532e-15
1.45974e-14
2.19762e-14
1.45907e-14
1.45839e-14
1.46598e-14
5.84498e-14
1.38832e-13
5.85856e-14
2.4848e-13
3.36154e-13
3.58115e-13
2.77775e-13
3.14196e-13
5.85064e-14
5.84406e-14
2.19485e-14
7.32345e-15
1.4617e-13
2.70412e-13
1.75395e-13
9.50179e-14
3.66108e-14
5.12098e-14
1.02354e-13
1.60775e-13
7.39096e-15
2.11872e-13
3.06989e-13
2.63098e-13
2.55862e-13
2.70384e-13
2.19299e-13
1.90123e-13
3.43515e-13
5.18857e-13
4.82357e-13
3.94743e-13
4.53046e-13
2.92416e-13
2.55787e-13
1.97353e-13
2.12049e-13
2.92352e-13
3.3611e-13
2.26593e-13
1.9008e-13
5.11993e-14
1.02262e-13
1.90002e-13
5.84674e-14
8.037e-14
3.65801e-14
6.58074e-14
3.65046e-14
5.85282e-14
1.46223e-13
2.48377e-13
8.78419e-14
1.90005e-13
2.77702e-13
2.777e-13
2.48609e-13
3.72519e-13
2.2084e-14
1.38925e-13
4.38294e-14
3.6505e-14
9.50691e-14
1.16923e-13
2.70463e-13
3.72745e-13
4.75068e-13
5.40875e-13
4.96982e-13
5.92053e-13
6.57808e-13
6.35894e-13
6.65068e-13
5.99323e-13
4.89716e-13
4.38471e-13
3.36283e-13
3.58085e-13
3.1435e-13
3.36146e-13
2.92419e-13
1.89988e-13
2.70521e-13
5.62737e-13
6.43143e-13
5.7013e-13
6.28608e-13
7.16243e-13
6.57819e-13
6.79733e-13
7.3083e-13
7.52836e-13
7.30962e-13
7.45482e-13
8.40539e-13
8.77075e-13
8.03964e-13
7.0166e-13
6.87052e-13
7.67457e-13
8.7706e-13
8.03989e-13
8.84403e-13
9.79392e-13
1.12555e-12
1.08173e-12
1.11827e-12
1.29374e-12
1.87093e-12
2.49236e-12
4.26848e-12
8.60997e-12
1.70227e-11
3.87521e-11
8.6129e-11
1.94631e-10
4.4049e-10
9.91426e-10
2.22059e-09
4.939e-09
1.09009e-08
2.38832e-08
5.19041e-08
1.11896e-07
2.39198e-07
5.06989e-07
1.06514e-06
2.2177e-06
4.57484e-06
9.34797e-06
1.89149e-05
3.78887e-05
7.51082e-05
0.000147294
0.000285648
0.000547567
0.00103704
0.00193939
0.0035792
0.00651403
0.0116817
0.0206224
0.0357976
0.0610157
0.101943
0.166605
0.265691
0.412387
0.62153
0.908156
1.28582
1.76525
2.35356
3.05416
3.8671
4.78963
5.81691
6.94268
8.15981
9.46081
10.8381
12.2845
13.793
15.3573
16.9715
18.6302
20.3287
22.0627
23.8285
25.6226
27.4421
29.2843
31.1469
33.0278
34.9252
36.8374
38.7631
40.7009
42.6498
44.6086
46.5765
48.5527
50.5364
52.527
54.5238
56.5264
58.5342
60.5467
62.5636
64.5844
66.6088
68.6365
70.6671
72.7003
74.7359
76.7735
78.8129
80.8537
82.8958
84.9388
86.9824
89.0264
91.0703
93.1138
95.1565
97.1979
99.2376
101.275
103.309
105.339
107.364
109.383
111.395
113.396
115.385
117.36
119.314
121.245
123.145
125.006
126.817
128.566
130.236
131.811
133.27
134.594
135.766
136.773
137.61
138.281
138.796
139.175
139.441
139.619
139.732
139.799
139.839
139.864
139.892
139.939
140.022
140.168
140.42
140.832
141.465
142.367
143.555
145.013
146.699
148.568
150.577
152.691
154.885
157.138
159.438
161.773
164.136
166.52
168.923
171.339
173.768
176.205
178.651
181.104
183.563
186.026
188.493
190.965
193.439
195.916
198.396
200.878
203.362
205.848
208.335
210.824
213.314
215.806
218.299
220.793
223.288
225.783
228.28
230.778
233.277
235.776
238.276
240.777
243.279
245.781
248.283
250.787
253.29
255.794
258.298
260.801
263.305
265.807
268.309
270.81
273.308
275.804
278.296
280.783
283.264
285.738
288.2
290.654
293.096
295.536
297.961
300.355
302.7
304.982
307.177
309.256
311.18
312.903
314.379
315.576
316.493
317.158
317.617
317.92
318.107
318.209
318.257
318.275
318.279
318.277
318.275
318.274
318.273
318.273
318.275
318.278
318.281
318.282
318.283
318.283
318.282
318.278
318.275
318.272
318.27
318.268
318.267
318.265
318.265
318.264
318.263
318.263
318.263
318.263
318.263
318.263
318.263
318.264
318.264
318.264
318.264
318.265
318.265
318.265
318.265
318.266
318.266
318.266
318.266
318.266
318.267
318.267
318.267
318.267
318.267
318.267
318.267
318.267
318.268
318.268
318.268
318.268
318.268
318.268
318.268
318.268
318.268
318.268
318.268
318.268
318.268
318.268
318.268
318.268
318.268
318.268
318.268
318.268
318.268
318.268
318.268
318.268
318.268
318.268
318.268
318.268
318.268
318.268
318.268
318.268
318.268
318.268
318.268
318.268
318.268
318.268
318.268
318.268
318.268
318.268
318.268
318.268
318.268
318.268
318.268
318.269
318.27
318.271
318.274
318.278
318.283
318.289
318.297
318.306
318.314
318.321
318.325
318.325
318.321
318.313
318.303
318.294
318.287
318.284
318.283
318.282
318.282
318.282
318.281
318.281
318.282
318.281
318.281
318.281
318.281
318.28
318.28
318.28
318.28
318.28
318.28
318.279
318.279
318.279
318.279
318.279
318.278
318.278
318.278
318.278
318.277
318.277
318.277
318.277
318.277
318.276
318.276
318.276
318.276
318.275
318.275
318.275
318.275
318.274
318.274
318.274
318.273
318.273
318.273
318.273
318.272
318.272
318.272
318.271
318.271
318.27
318.27
318.27
318.269
318.269
318.269
318.268
318.268
318.267
318.267
318.266
318.266
318.265
318.265
318.265
318.264
318.263
318.263
318.262
318.262
318.261
318.26
318.26
318.259
318.259
318.256
318.258
318.252
318.257
318.246
318.258
318.237
318.26
318.217
318.252
318.162
318.198
317.991
317.954
317.462
316.904
315.748
312.379
308.887
294.533
279.298
227.649
144.99
36.9227
6.41028
1.03584
0.165444
0.0263757
0.00420279
0.000669658
0.000106701
1.70016e-05
2.709e-06
4.31647e-07
6.87757e-08
1.09585e-08
1.7443e-09
2.76965e-10
4.3127e-11
6.19223e-12
2.98398e-13
3.98802e-13
3.44624e-13
3.43358e-13
1.19303e-13
4.21041e-13
3.3546e-13
2.89666e-13
2.8827e-13
8.53133e-14
2.72619e-13
5.4183e-14
8.56848e-14
2.02584e-13
8.70555e-14
4.75444e-18
9.37678e-14
1.95487e-13
2.11219e-13
3.04868e-13
3.19739e-13
1.80301e-13
1.8826e-13
4.99696e-13
2.57911e-13
2.26987e-13
1.40582e-13
1.57577e-14
1.32702e-13
3.95141e-14
1.32375e-13
9.15863e-14
2.03043e-13
3.02658e-13
1.33591e-13
7.7959e-14
1.87352e-13
6.31479e-14
1.86797e-13
3.96408e-14
1.40468e-13
3.8898e-14
1.17077e-13
5.49812e-14
7.56664e-15
3.98117e-14
7.96797e-15
6.18221e-14
2.03469e-13
2.57606e-13
1.79969e-13
8.59349e-14
1.48457e-13
2.27076e-13
2.96153e-13
2.81274e-13
2.51937e-13
3.36223e-13
4.36508e-13
1.56696e-13
8.6319e-14
7.7762e-14
1.87185e-13
2.11055e-13
3.1348e-13
5.15654e-13
3.82946e-13
1.56368e-13
2.11319e-13
2.10991e-13
2.8075e-13
2.81623e-13
3.98908e-13
6.41357e-13
5.94323e-13
5.2389e-13
5.46918e-13
3.36515e-13
2.03627e-13
5.93051e-13
6.87238e-13
3.92684e-13
4.77277e-13
6.93711e-13
5.40178e-13
6.01805e-13
5.78288e-13
6.41537e-13
8.36194e-13
6.88562e-13
6.40873e-13
5.70746e-13
5.39418e-13
4.61332e-13
4.45493e-13
4.60774e-13
2.5785e-13
1.59709e-14
1.49256e-13
2.88499e-13
8.61992e-14
7.68927e-15
1.72152e-13
3.59766e-13
4.05805e-13
6.40738e-13
5.72051e-13
7.66342e-13
8.97229e-13
7.43554e-13
7.73508e-13
7.112e-13
7.66803e-13
7.58138e-13
5.71184e-13
5.94092e-13
5.31506e-13
4.21792e-13
5.08291e-13
5.31899e-13
6.01607e-13
3.20371e-13
2.18735e-13
2.58654e-13
1.01373e-13
1.09607e-13
1.40446e-13
1.17407e-13
4.66676e-14
4.63133e-14
1.71759e-13
7.17009e-14
2.19107e-13
2.16868e-13
2.43268e-14
1.09799e-13
2.58201e-13
3.11925e-13
3.36292e-13
2.81064e-13
1.17453e-13
2.18907e-13
1.87463e-13
2.26519e-13
2.424e-13
2.12036e-13
4.60686e-13
2.96899e-13
3.67641e-13
2.81593e-13
2.42894e-13
5.77708e-13
3.51797e-13
3.8347e-13
4.28718e-13
2.8965e-13
4.30146e-13
5.94174e-13
4.53157e-13
3.28856e-13
3.59607e-13
3.4327e-13
1.96242e-13
7.89265e-15
3.51944e-13
6.40438e-13
5.38846e-13
1.41561e-13
3.20765e-13
4.37626e-13
3.75278e-13
3.7544e-13
5.15999e-13
5.6287e-13
6.25283e-13
5.07439e-13
2.03899e-13
1.33224e-13
2.18897e-13
1.56173e-13
2.42783e-13
5.86183e-13
6.87393e-13
6.02274e-13
8.75454e-13
1.016e-12
9.14786e-13
8.44373e-13
9.69652e-13
1.06342e-12
9.9273e-13
1.03127e-12
7.58679e-13
5.78492e-13
5.3143e-13
4.69312e-13
4.77004e-13
6.64489e-13
8.99328e-13
8.05045e-13
6.71415e-13
5.32307e-13
4.45653e-13
4.22049e-13
3.676e-13
3.98819e-13
4.76966e-13
6.01666e-13
7.42724e-13
6.25447e-13
6.56568e-13
6.87983e-13
7.66173e-13
6.88007e-13
6.3337e-13
5.94152e-13
5.15566e-13
3.91229e-13
3.67309e-13
4.61048e-13
5.5525e-13
6.6461e-13
6.48819e-13
6.10179e-13
6.33198e-13
5.46208e-13
4.8543e-13
4.29923e-13
2.96947e-13
7.04673e-14
2.32088e-14
2.353e-14
6.98781e-14
3.14143e-14
5.8483e-17
4.46581e-17
7.86307e-15
2.34072e-14
3.12127e-14
3.11639e-14
1.53711e-14
5.40536e-14
7.26297e-15
4.64669e-14
1.56181e-14
1.5332e-14
1.61823e-16
7.76565e-15
)
;

boundaryField
{
    sides
    {
        type            calculated;
        value           nonuniform List<scalar> 2(7.76565e-15 2.08456e-18);
    }
    empty
    {
        type            empty;
    }
}


// ************************************************************************* //
