/*--------------------------------*- C++ -*----------------------------------*\
  =========                 |
  \\      /  F ield         | OpenFOAM: The Open Source CFD Toolbox
   \\    /   O peration     | Website:  https://openfoam.org
    \\  /    A nd           | Version:  13
     \\/     M anipulation  |
\*---------------------------------------------------------------------------*/
FoamFile
{
    format      ascii;
    class       volScalarField;
    location    "0.004";
    object      p;
}
// * * * * * * * * * * * * * * * * * * * * * * * * * * * * * * * * * * * * * //

dimensions      [1 -1 -2 0 0 0 0];

internalField   nonuniform List<scalar> 
1000
(
100000
100000
100000
100000
100000
100000
100000
100000
100000
100000
100000
100000
100000
100000
100000
100000
100000
100000
100000
100000
100000
100000
100000
100000
100000
100000
100000
100000
100000
100000
100000
100000
100000
100000
100000
100000
100000
100000
100000
100000
100000
100000
100000
100000
100000
100000
100000
100000
100000
100000
100000
100000
100000
100000
100000
100000
100000
100000
100000
100000
100000
100000
100000
100000
100000
100000
100000
100000
100000
100000
100000
100000
100000
100000
100000
100000
100000
100000
100000
100000
100000
100000
100000
100000
100000
100000
100000
100000
100000
100000
100000
100000
100000
100000
100000
100000
100000
100000
100000
100000
100000
100000
100000
100000
100000
100000
100000
100000
100000
100000
100000
100000
100000
100000
100000
100000
100000
100000
100000
100000
100000
100000
100000
100000
100000
100000
100000
100000
100000
100000
100000
100000
100000
100000
100000
100000
100000
100000
100000
100000
100000
100000
100000
100000
100000
100000
100000
100000
100000
100000
100000
100000
100000
100000
100000
100000
100000
100000
100000
100000
100000
100000
100000
100000
100000
100000
100000
100000
100000
100000
100000
100000
100000
100000
100000
100000
100000
100000
100000
100000
100000
100000
100000
100000
100000
100000
100000
100000
100000
100000
100000
100000
100000
100000
100000
100000
100000
100000
100000
100000
100000
100000
100000
100000
100000
100000
100000
100000
100000
100000
100000
100000
100000
100000
100000
100000
100000
100000
100000
100000
100000
100000
100000
100000
100000
100000
100000
100000
100000
100000
100000
100000
100000
100000
100000
100000
100000
100000
100000
100000
100000
100000
100000
100000
100000
100000
100000
100000
100000
100000
100000
100000
100000
100000
100000
100000
100000
100000
100000
100000
100000
100000
100000
100000
100000
100000
100000
100000
100000
100000
100000
100000
100000
100000
100000
100000
100000
100000
100000
100000
100000
100000
100000
100000
100000
100000
100000
100000
100000
100000
100000
100000
100000
100000
100000
100000
100000
100000
100000
100000
100000
100000
100000
100000
100000
100000
100000
100000
100000
100000
100000
100000
100000
100000
100000
100000
100000
100000
100000
100000
100000
100000
100000
100000
100000
99999.9
99999.9
99999.8
99999.6
99999.3
99998.7
99997.6
99995.7
99992.3
99986.7
99977.3
99962.1
99938
99901.2
99846.6
99768.9
99662.5
99522.4
99344.8
99127.2
98868.7
98569.4
98230.7
97854.7
97444.1
97001.8
96531
96034.6
95515.8
94977.1
94421.4
93850.8
93267.5
92673.5
92070.4
91459.7
90842.8
90220.7
89594.6
88965.4
88333.8
87700.6
87066.4
86431.6
85796.9
85162.5
84529
83896.6
83265.6
82636.3
82008.9
81383.6
80760.7
80140.2
79522.3
78907.2
78295
77685.8
77079.6
76476.7
75877
75280.6
74687.7
74098.2
73512.3
72930.1
72351.5
71776.7
71205.6
70638.5
70075.4
69516.3
68961.4
68410.7
67864.5
67322.8
66785.9
66253.9
65727.2
65206
64690.9
64182.4
63681.1
63188
62704.3
62231.4
61771.1
61325.9
60898.7
60492.9
60112.6
59762
59445.4
59166.3
58927.4
58729.5
58571.4
58450.1
58361
58298.4
58256.7
58230.3
58214.4
58205.3
58199.5
58193.8
58184.6
58168.2
58139.2
58089.3
58007.8
57882.8
57705.2
57472.1
57187.4
56859.7
56498.8
56113.5
55710.8
55296.1
54873.2
54445.1
54013.8
53580.8
53147.3
52714.1
52282
51851.3
51422.5
50995.9
50571.6
50149.8
49730.8
49314.6
48901.2
48490.7
48083.3
47678.9
47277.5
46879.1
46483.9
46091.7
45702.6
45316.6
44933.6
44553.7
44176.8
43803
43432.1
43064.3
42699.5
42337.6
41978.7
41622.7
41269.7
40919.5
40572.3
40227.9
39886.3
39547.7
39211.8
38878.8
38548.7
38221.4
37897
37575.4
37256.7
36941
36628.3
36318.7
36012.3
35709.3
35409.9
35113.8
34822.4
34533.4
34247.1
33965.3
33689.6
33421.5
33162.9
32915.9
32683.6
32470.2
32280.3
32118.5
31987.7
31888
31815.9
31766.2
31733.4
31713.2
31702
31696.9
31695
31694.5
31694.7
31695
31695.1
31695.2
31695.2
31694.9
31694.4
31694.1
31694
31693.8
31693.8
31694
31694.4
31694.8
31695.2
31695.4
31695.6
31695.8
31695.9
31696
31696
31696.1
31696.1
31696.1
31696.1
31696
31696
31695.9
31695.9
31695.8
31695.8
31695.7
31695.7
31695.6
31695.6
31695.5
31695.5
31695.4
31695.4
31695.3
31695.3
31695.2
31695.2
31695.1
31695.1
31695.1
31695
31695
31695
31694.9
31694.9
31694.9
31694.8
31694.8
31694.7
31694.7
31694.7
31694.6
31694.6
31694.6
31694.5
31694.5
31694.5
31694.5
31694.4
31694.4
31694.4
31694.3
31694.3
31694.3
31694.2
31694.2
31694.2
31694.1
31694.1
31694.1
31694
31694
31694
31693.9
31693.9
31693.9
31693.9
31693.8
31693.8
31693.8
31693.7
31693.7
31693.7
31693.6
31693.6
31693.6
31693.6
31693.5
31693.5
31693.6
31693.6
31693.7
31693.9
31694.2
31694.6
31695.2
31695.9
31696.8
31697.8
31698.7
31699.5
31699.8
31699.6
31698.9
31697.8
31696.3
31695
31694.1
31693.5
31693.2
31693.1
31693.1
31693.1
31693
31693
31693
31692.9
31692.9
31693
31692.9
31692.9
31692.9
31692.8
31692.8
31692.8
31692.8
31692.7
31692.7
31692.7
31692.7
31692.6
31692.6
31692.6
31692.6
31692.6
31692.5
31692.5
31692.5
31692.5
31692.4
31692.4
31692.4
31692.3
31692.3
31692.3
31692.3
31692.2
31692.2
31692.2
31692.1
31692.1
31692.1
31692
31692
31692
31691.9
31691.9
31691.8
31691.8
31691.8
31691.7
31691.7
31691.6
31691.6
31691.6
31691.5
31691.5
31691.4
31691.4
31691.3
31691.3
31691.2
31691.2
31691.1
31691.1
31691
31691
31690.9
31690.8
31690.8
31690.7
31690.7
31690.5
31690.6
31690.3
31690.4
31690
31690.3
31689.5
31690.3
31688.6
31690.7
31687
31691.4
31682.4
31691.4
31669.4
31686.1
31629.8
31651.8
31502.6
31479.9
31023.8
30765.6
29223.4
27839
23255.7
17265.3
11585.7
10289
10070.4
10035.2
10029.6
10028.7
10028.5
10028.5
10028.5
10028.5
10028.5
10028.5
10028.5
10028.5
10028.5
10028.5
10028.5
10028.5
10028.5
10028.5
10028.5
10028.5
10028.5
10028.5
10028.5
10028.5
10028.5
10028.5
10028.5
10028.5
10028.5
10028.5
10028.5
10028.5
10028.5
10028.5
10028.5
10028.5
10028.5
10028.5
10028.5
10028.5
10028.5
10028.5
10028.5
10028.5
10028.5
10028.5
10028.5
10028.5
10028.5
10028.5
10028.5
10028.5
10028.5
10028.5
10028.5
10028.5
10028.5
10028.5
10028.5
10028.5
10028.5
10028.5
10028.5
10028.5
10028.5
10028.5
10028.5
10028.5
10028.5
10028.5
10028.5
10028.5
10028.5
10028.5
10028.5
10028.5
10028.5
10028.5
10028.5
10028.5
10028.5
10028.5
10028.5
10028.5
10028.5
10028.5
10028.5
10028.5
10028.5
10028.5
10028.5
10028.5
10028.5
10028.5
10028.5
10028.5
10028.5
10028.5
10028.5
10028.5
10028.5
10028.5
10028.5
10028.5
10028.5
10028.5
10028.5
10028.5
10028.5
10028.5
10028.5
10028.5
10028.5
10028.5
10028.5
10028.5
10028.5
10028.5
10028.5
10028.5
10028.5
10028.5
10028.5
10028.5
10028.5
10028.5
10028.5
10028.5
10028.5
10028.5
10028.5
10028.5
10028.5
10028.5
10028.5
10028.5
10028.5
10028.5
10028.5
10028.5
10028.5
10028.5
10028.5
10028.5
10028.5
10028.5
10028.5
10028.5
10028.5
10028.5
10028.5
10028.5
10028.5
10028.5
10028.5
10028.5
10028.5
10028.5
10028.5
10028.5
10028.5
10028.5
10028.5
10028.5
10028.5
10028.5
10028.5
10028.5
10028.5
10028.5
10028.5
10028.5
10028.5
10028.5
10028.5
10028.5
10028.5
10028.5
10028.5
10028.5
10028.5
10028.5
10028.5
10028.5
10028.5
10028.5
10028.5
10028.5
10028.5
10028.5
10028.5
10028.5
10028.5
10028.5
10028.5
10028.5
10028.5
10028.5
10028.5
10028.5
10028.5
10028.5
10028.5
10028.5
10028.5
10028.5
10028.5
10028.5
10028.5
10028.5
10028.5
10028.5
10028.5
10028.5
10028.5
10028.5
10028.5
10028.5
10028.5
10028.5
10028.5
10028.5
10028.5
10028.5
10028.5
10028.5
10028.5
10028.5
10028.5
10028.5
10028.5
10028.5
10028.5
10028.5
10028.5
10028.5
10028.5
10028.5
10028.5
10028.5
10028.5
10028.5
10028.5
10028.5
10028.5
10028.5
10028.5
10028.5
10028.5
10028.5
10028.5
10028.5
10028.5
10028.5
10028.5
10028.5
10028.5
10028.5
10028.5
10028.5
10028.5
10028.5
10028.5
)
;

boundaryField
{
    sides
    {
        type            zeroGradient;
    }
    empty
    {
        type            empty;
    }
}


// ************************************************************************* //
