/*--------------------------------*- C++ -*----------------------------------*\
  =========                 |
  \\      /  F ield         | OpenFOAM: The Open Source CFD Toolbox
   \\    /   O peration     | Website:  https://openfoam.org
    \\  /    A nd           | Version:  13
     \\/     M anipulation  |
\*---------------------------------------------------------------------------*/
FoamFile
{
    format      ascii;
    class       surfaceScalarField;
    location    "0.004";
    object      phi;
}
// * * * * * * * * * * * * * * * * * * * * * * * * * * * * * * * * * * * * * //

dimensions      [1 0 -1 0 0 0 0];

internalField   nonuniform List<scalar> 
999
(
0
0
4.54747e-13
2.27374e-13
0
0
-3.41061e-13
-3.41061e-13
0
2.27374e-13
1.13687e-13
1.13687e-13
1.13687e-13
-2.27374e-13
-2.27374e-13
0
0
-1.13687e-13
1.13687e-13
4.54747e-13
3.41061e-13
-2.27374e-13
-3.41061e-13
0
0
0
1.13687e-13
4.54747e-13
2.27374e-13
0
1.13687e-13
0
-1.13687e-13
2.27374e-13
5.68434e-13
5.68434e-13
2.27374e-13
0
0
3.41061e-13
3.41061e-13
3.41061e-13
5.68434e-13
6.82121e-13
6.82121e-13
7.95808e-13
7.95808e-13
4.54747e-13
3.41061e-13
0
-3.41061e-13
-3.41061e-13
5.68434e-13
6.82121e-13
6.82121e-13
-3.41061e-13
-1.02318e-12
-6.82121e-13
-3.41061e-13
3.41061e-13
-5.68434e-13
-9.09495e-13
-1.47793e-12
-3.41061e-13
-4.54747e-13
-6.82121e-13
-3.41061e-13
1.13687e-13
0
-3.41061e-13
9.09495e-13
0
-1.25056e-12
-4.54747e-13
2.27374e-13
5.68434e-13
7.95808e-13
1.13687e-12
6.82121e-13
1.47793e-12
5.68434e-13
0
2.27374e-13
7.95808e-13
6.82121e-13
2.27374e-13
1.02318e-12
2.27374e-13
6.82121e-13
5.68434e-13
9.09495e-13
1.7053e-12
2.16005e-12
2.04636e-12
1.13687e-12
9.09495e-13
7.95808e-13
3.41061e-13
3.41061e-13
4.54747e-13
1.13687e-13
1.13687e-13
1.13687e-13
0
-2.27374e-13
-4.54747e-13
-5.68434e-13
-6.82121e-13
-3.41061e-13
-5.68434e-13
-6.82121e-13
-9.09495e-13
-1.02318e-12
-9.09495e-13
-9.09495e-13
-1.13687e-12
-1.02318e-12
-9.09495e-13
-9.09495e-13
-9.09495e-13
-9.09495e-13
-9.09495e-13
-5.68434e-13
-9.09495e-13
-7.95808e-13
-4.54747e-13
-3.41061e-13
1.13687e-13
2.27374e-13
2.27374e-13
0
-4.54747e-13
-6.82121e-13
-2.27374e-13
-1.13687e-13
2.27374e-13
2.27374e-13
0
1.13687e-13
4.54747e-13
4.54747e-13
4.54747e-13
4.54747e-13
4.54747e-13
4.54747e-13
5.68434e-13
5.68434e-13
5.68434e-13
5.68434e-13
5.68434e-13
4.54747e-13
3.41061e-13
4.54747e-13
4.54747e-13
4.54747e-13
3.41061e-13
3.41061e-13
-1.13687e-13
-1.13687e-13
-2.27374e-13
0
0
0
1.13687e-13
4.54747e-13
4.54747e-13
4.54747e-13
4.54747e-13
4.54747e-13
4.54747e-13
5.68434e-13
5.68434e-13
5.68434e-13
5.68434e-13
5.68434e-13
4.54747e-13
3.41061e-13
4.54747e-13
4.54747e-13
1.13687e-13
0
2.27374e-13
1.13687e-13
-3.41061e-13
-3.41061e-13
0
0
0
0
-1.13687e-13
-1.13687e-13
0
-5.68434e-13
-3.41061e-13
-5.68434e-13
-1.25056e-12
-1.36424e-12
-1.25056e-12
-1.25056e-12
-5.68434e-13
1.13687e-13
0
-1.13687e-13
-2.27374e-13
-9.09495e-13
-9.09495e-13
-4.54747e-13
-5.68434e-13
3.41061e-13
4.54747e-13
5.68434e-13
1.13687e-13
-2.27374e-13
-1.13687e-12
-1.13687e-12
-1.13687e-12
-1.13687e-12
-1.02318e-12
-7.95808e-13
-1.13687e-12
-1.59162e-12
-2.04636e-12
-1.7053e-12
-1.7053e-12
-1.59162e-12
-1.13687e-12
-7.95808e-13
-7.95808e-13
-1.25056e-12
-1.13687e-12
-1.13687e-12
-9.09495e-13
-7.95808e-13
0
-6.82121e-13
-3.41061e-13
-1.13687e-13
6.82121e-13
-4.54747e-13
1.13687e-13
-2.27374e-13
-2.27374e-13
-9.09495e-13
-5.68434e-13
-5.68434e-13
-6.82121e-13
-1.25056e-12
-1.25056e-12
-1.25056e-12
-5.68434e-13
-3.41061e-13
-4.54747e-13
-1.13687e-13
2.27374e-13
7.95808e-13
6.82121e-13
1.47793e-12
1.7053e-12
2.16005e-12
1.93268e-12
2.27374e-12
2.50111e-12
2.72848e-12
2.50111e-12
2.6148e-12
2.04636e-12
1.93268e-12
1.36424e-12
1.47793e-12
1.36424e-12
1.36424e-12
1.25056e-12
9.09495e-13
5.68434e-13
1.59162e-12
2.6148e-12
2.38742e-12
2.50111e-12
2.6148e-12
2.84217e-12
2.6148e-12
2.95586e-12
2.84217e-12
3.06954e-12
2.84217e-12
3.29692e-12
3.29692e-12
3.86535e-12
2.50111e-12
3.06954e-12
2.84217e-12
3.29692e-12
2.95586e-12
3.75167e-12
3.52429e-12
4.3201e-12
4.09273e-12
4.66116e-12
4.54747e-12
6.13909e-12
8.41283e-12
1.28466e-11
2.31921e-11
4.66116e-11
1.00044e-10
2.2419e-10
5.0386e-10
1.13971e-09
2.57137e-09
5.77461e-09
1.28859e-08
2.85445e-08
6.27607e-08
1.36924e-07
2.96336e-07
6.36067e-07
1.35379e-06
2.85651e-06
5.97394e-06
1.23802e-05
2.54173e-05
5.16833e-05
0.000104056
0.000207369
0.000408915
0.000797581
0.00153812
0.00293147
0.00551873
0.0102566
0.0188061
0.033994
0.0605254
0.106038
0.182571
0.308455
0.510415
0.825351
1.30082
1.99311
2.96234
4.26565
5.95051
8.05011
10.5816
13.5469
16.9347
20.7236
24.885
29.3859
34.1914
39.2658
44.5749
50.086
55.7688
61.5956
67.5414
73.5838
79.7028
85.8808
92.1022
98.3533
104.622
110.898
117.173
123.437
129.684
135.908
142.103
148.265
154.389
160.473
166.512
172.504
178.446
184.337
190.174
195.957
201.682
207.35
212.959
218.508
223.996
229.423
234.788
240.09
245.328
250.504
255.615
260.662
265.644
270.562
275.414
280.2
284.92
289.574
294.162
298.682
303.134
307.518
311.832
316.076
320.247
324.345
328.366
332.308
336.166
339.937
343.613
347.186
350.644
353.976
357.163
360.184
363.017
365.633
368.007
370.113
371.932
373.456
374.688
375.648
376.364
376.875
377.221
377.444
377.579
377.656
377.699
377.734
377.785
377.873
378.029
378.299
378.752
379.47
380.529
381.968
383.777
385.897
388.254
390.773
393.395
396.072
398.771
401.467
404.144
406.789
409.392
411.947
414.45
416.898
419.287
421.616
423.885
426.093
428.239
430.323
432.346
434.307
436.207
438.047
439.826
441.546
443.207
444.81
446.355
447.843
449.275
450.652
451.973
453.241
454.455
455.617
456.727
457.786
458.794
459.753
460.663
461.524
462.338
463.105
463.826
464.501
465.131
465.718
466.261
466.761
467.218
467.635
468.01
468.345
468.641
468.898
469.116
469.297
469.441
469.55
469.623
469.663
469.669
469.643
469.586
469.501
469.39
469.256
469.105
468.944
468.779
468.621
468.48
468.362
468.271
468.205
468.159
468.13
468.112
468.103
468.098
468.096
468.096
468.095
468.094
468.094
468.093
468.093
468.093
468.093
468.093
468.092
468.092
468.091
468.091
468.09
468.089
468.089
468.088
468.087
468.087
468.086
468.086
468.085
468.084
468.084
468.083
468.083
468.082
468.081
468.081
468.08
468.08
468.079
468.078
468.078
468.077
468.076
468.076
468.075
468.074
468.074
468.073
468.072
468.072
468.071
468.07
468.069
468.069
468.068
468.067
468.066
468.065
468.064
468.064
468.063
468.062
468.061
468.06
468.059
468.058
468.057
468.056
468.055
468.054
468.053
468.052
468.051
468.05
468.049
468.048
468.046
468.045
468.044
468.043
468.042
468.04
468.039
468.038
468.036
468.034
468.032
468.03
468.026
468.021
468.013
468.001
467.983
467.953
467.908
467.837
467.729
467.564
467.318
466.956
466.43
465.681
464.63
463.185
461.233
458.651
455.304
451.061
445.804
439.448
431.955
423.356
413.762
403.373
392.475
381.427
370.638
360.531
351.502
343.862
337.781
333.246
330.071
327.969
326.639
325.83
325.355
325.084
324.938
324.861
324.823
324.808
324.802
324.801
324.8
324.802
324.805
324.811
324.817
324.823
324.827
324.829
324.83
324.83
324.83
324.83
324.829
324.829
324.828
324.827
324.826
324.825
324.824
324.823
324.822
324.821
324.82
324.819
324.818
324.817
324.815
324.814
324.813
324.812
324.811
324.811
324.81
324.809
324.808
324.807
324.806
324.805
324.804
324.803
324.802
324.801
324.8
324.799
324.798
324.797
324.796
324.795
324.794
324.793
324.792
324.791
324.79
324.789
324.788
324.787
324.786
324.785
324.784
324.782
324.781
324.78
324.779
324.777
324.775
324.774
324.771
324.77
324.765
324.766
324.758
324.761
324.742
324.746
324.692
324.681
324.522
324.428
323.938
323.38
321.686
319.248
312.587
302.582
278.656
237.043
158.833
45.92
8.2584
1.3601
0.218654
0.0349347
0.00557037
0.000887748
0.00014146
2.25403e-05
3.59156e-06
5.72274e-07
9.11846e-08
1.45288e-08
2.31438e-09
3.68232e-10
5.81792e-11
8.896e-12
1.06581e-12
-4.26326e-14
-1.84741e-13
-1.84741e-13
-1.7053e-13
-1.13687e-13
-1.56319e-13
-1.27898e-13
-1.42109e-13
-5.68434e-14
1.42109e-14
5.68434e-14
0
4.26326e-14
8.52651e-14
5.68434e-14
-1.42109e-14
1.13687e-13
5.68434e-14
1.56319e-13
1.13687e-13
1.27898e-13
9.9476e-14
1.42109e-13
1.98952e-13
1.13687e-13
9.9476e-14
-1.42109e-14
0
-4.26326e-14
0
2.84217e-14
7.10543e-14
5.68434e-14
8.52651e-14
5.68434e-14
0
-1.42109e-14
5.68434e-14
5.68434e-14
1.42109e-14
-4.26326e-14
4.26326e-14
1.42109e-14
4.26326e-14
-2.84217e-14
0
-1.42109e-14
2.84217e-14
1.13687e-13
9.9476e-14
7.10543e-14
4.26326e-14
9.9476e-14
1.13687e-13
1.27898e-13
1.42109e-13
2.27374e-13
1.42109e-13
1.7053e-13
4.26326e-14
0
1.42109e-14
8.52651e-14
1.13687e-13
2.27374e-13
1.7053e-13
1.42109e-13
5.68434e-14
1.27898e-13
8.52651e-14
1.27898e-13
1.42109e-13
2.55795e-13
2.98428e-13
2.70006e-13
2.41585e-13
2.41585e-13
1.13687e-13
1.84741e-13
2.70006e-13
2.55795e-13
2.41585e-13
2.41585e-13
2.84217e-13
2.70006e-13
2.84217e-13
2.70006e-13
3.2685e-13
3.55271e-13
3.2685e-13
2.70006e-13
2.84217e-13
2.27374e-13
2.13163e-13
1.84741e-13
1.7053e-13
5.68434e-14
2.84217e-14
1.27898e-13
7.10543e-14
4.26326e-14
2.84217e-14
1.27898e-13
1.84741e-13
2.41585e-13
2.84217e-13
3.69482e-13
3.69482e-13
3.83693e-13
3.55271e-13
3.55271e-13
3.41061e-13
3.83693e-13
2.98428e-13
2.98428e-13
2.55795e-13
2.41585e-13
2.13163e-13
2.55795e-13
2.41585e-13
2.27374e-13
7.10543e-14
1.13687e-13
8.52651e-14
4.26326e-14
7.10543e-14
2.84217e-14
4.26326e-14
-4.26326e-14
4.26326e-14
5.68434e-14
7.10543e-14
7.10543e-14
7.10543e-14
-4.26326e-14
-7.10543e-14
-1.56319e-13
-1.27898e-13
-1.7053e-13
-2.84217e-14
-9.9476e-14
-8.52651e-14
-7.10543e-14
-9.9476e-14
-1.42109e-13
-1.56319e-13
-1.42109e-13
-1.7053e-13
-1.56319e-13
-8.52651e-14
-1.84741e-13
-2.13163e-13
-1.56319e-13
-1.84741e-13
-1.27898e-13
-2.13163e-13
-1.7053e-13
-2.98428e-13
-1.7053e-13
-1.84741e-13
-1.27898e-13
-1.7053e-13
-5.68434e-14
8.52651e-14
2.41585e-13
2.98428e-13
1.42109e-13
8.52651e-14
2.27374e-13
1.56319e-13
1.84741e-13
1.98952e-13
2.41585e-13
2.98428e-13
2.55795e-13
1.84741e-13
5.68434e-14
9.9476e-14
7.10543e-14
9.9476e-14
1.98952e-13
2.98428e-13
2.84217e-13
3.41061e-13
4.54747e-13
4.40536e-13
4.40536e-13
3.97904e-13
5.11591e-13
4.68958e-13
4.68958e-13
4.40536e-13
2.98428e-13
2.84217e-13
2.13163e-13
1.98952e-13
2.27374e-13
3.97904e-13
3.97904e-13
3.55271e-13
2.84217e-13
1.98952e-13
2.27374e-13
1.84741e-13
1.7053e-13
2.13163e-13
2.41585e-13
3.2685e-13
3.2685e-13
2.84217e-13
2.98428e-13
3.69482e-13
3.2685e-13
3.2685e-13
2.98428e-13
2.70006e-13
1.98952e-13
1.7053e-13
1.98952e-13
2.27374e-13
3.12639e-13
3.41061e-13
2.98428e-13
2.84217e-13
2.70006e-13
2.27374e-13
2.13163e-13
1.98952e-13
7.10543e-14
0
0
4.26326e-14
4.26326e-14
0
1.42109e-14
-1.42109e-14
0
-1.42109e-14
-2.84217e-14
-1.42109e-14
4.26326e-14
1.42109e-14
1.42109e-14
4.26326e-14
-1.42109e-14
0
0
)
;

boundaryField
{
    sides
    {
        type            calculated;
        value           uniform 0;
    }
    empty
    {
        type            empty;
    }
}


// ************************************************************************* //
