/*--------------------------------*- C++ -*----------------------------------*\
  =========                 |
  \\      /  F ield         | OpenFOAM: The Open Source CFD Toolbox
   \\    /   O peration     | Website:  https://openfoam.org
    \\  /    A nd           | Version:  13
     \\/     M anipulation  |
\*---------------------------------------------------------------------------*/
FoamFile
{
    format      ascii;
    class       volScalarField;
    location    "0.004";
    object      rho;
}
// * * * * * * * * * * * * * * * * * * * * * * * * * * * * * * * * * * * * * //

dimensions      [1 -3 0 0 0 0 0];

internalField   nonuniform List<scalar> 
1000
(
0.995488
0.995488
0.995488
0.995488
0.995488
0.995488
0.995488
0.995488
0.995488
0.995488
0.995488
0.995488
0.995488
0.995488
0.995488
0.995488
0.995488
0.995488
0.995488
0.995488
0.995488
0.995488
0.995488
0.995488
0.995488
0.995488
0.995488
0.995488
0.995488
0.995488
0.995488
0.995488
0.995488
0.995488
0.995488
0.995488
0.995488
0.995488
0.995488
0.995488
0.995488
0.995488
0.995488
0.995488
0.995488
0.995488
0.995488
0.995488
0.995488
0.995488
0.995488
0.995488
0.995488
0.995488
0.995488
0.995488
0.995488
0.995488
0.995488
0.995488
0.995488
0.995488
0.995488
0.995488
0.995488
0.995488
0.995488
0.995488
0.995488
0.995488
0.995488
0.995488
0.995488
0.995488
0.995488
0.995488
0.995488
0.995488
0.995488
0.995488
0.995488
0.995488
0.995488
0.995488
0.995488
0.995488
0.995488
0.995488
0.995488
0.995488
0.995488
0.995488
0.995488
0.995488
0.995488
0.995488
0.995488
0.995488
0.995488
0.995488
0.995488
0.995488
0.995488
0.995488
0.995488
0.995488
0.995488
0.995488
0.995488
0.995488
0.995488
0.995488
0.995488
0.995488
0.995488
0.995488
0.995488
0.995488
0.995488
0.995488
0.995488
0.995488
0.995488
0.995488
0.995488
0.995488
0.995488
0.995488
0.995488
0.995488
0.995488
0.995488
0.995488
0.995488
0.995488
0.995488
0.995488
0.995488
0.995488
0.995488
0.995488
0.995488
0.995488
0.995488
0.995488
0.995488
0.995488
0.995488
0.995488
0.995488
0.995488
0.995488
0.995488
0.995488
0.995488
0.995488
0.995488
0.995488
0.995488
0.995488
0.995488
0.995488
0.995488
0.995488
0.995488
0.995488
0.995488
0.995488
0.995488
0.995488
0.995488
0.995488
0.995488
0.995488
0.995488
0.995488
0.995488
0.995488
0.995488
0.995488
0.995488
0.995488
0.995488
0.995488
0.995488
0.995488
0.995488
0.995488
0.995488
0.995488
0.995488
0.995488
0.995488
0.995488
0.995488
0.995488
0.995488
0.995488
0.995488
0.995488
0.995488
0.995488
0.995488
0.995488
0.995488
0.995488
0.995488
0.995488
0.995488
0.995488
0.995488
0.995488
0.995488
0.995488
0.995488
0.995488
0.995488
0.995488
0.995488
0.995488
0.995488
0.995488
0.995488
0.995488
0.995488
0.995488
0.995488
0.995488
0.995488
0.995488
0.995488
0.995488
0.995488
0.995488
0.995488
0.995488
0.995488
0.995488
0.995488
0.995488
0.995488
0.995488
0.995488
0.995488
0.995488
0.995488
0.995488
0.995488
0.995488
0.995488
0.995488
0.995488
0.995488
0.995488
0.995488
0.995488
0.995488
0.995488
0.995488
0.995488
0.995488
0.995488
0.995488
0.995488
0.995488
0.995488
0.995488
0.995488
0.995488
0.995488
0.995488
0.995488
0.995488
0.995488
0.995488
0.995488
0.995488
0.995488
0.995488
0.995488
0.995488
0.995488
0.995488
0.995488
0.995488
0.995488
0.995488
0.995488
0.995488
0.995488
0.995488
0.995488
0.995488
0.995488
0.995488
0.995488
0.995488
0.995488
0.995488
0.995488
0.995488
0.995488
0.995488
0.995488
0.995488
0.995488
0.995488
0.995488
0.995488
0.995488
0.995488
0.995488
0.995488
0.995488
0.995488
0.995488
0.995488
0.995488
0.995488
0.995488
0.995488
0.995488
0.995488
0.995488
0.995487
0.995487
0.995487
0.995486
0.995485
0.995482
0.995478
0.99547
0.995457
0.995433
0.995392
0.995325
0.995216
0.995044
0.99478
0.99439
0.993834
0.993072
0.992068
0.990796
0.989236
0.987381
0.985232
0.982798
0.980094
0.977136
0.973947
0.970548
0.966959
0.963202
0.959296
0.95526
0.951109
0.946858
0.942522
0.938111
0.933637
0.929109
0.924535
0.919923
0.915278
0.910607
0.905914
0.901205
0.896482
0.89175
0.887012
0.88227
0.877526
0.872783
0.868044
0.863308
0.858579
0.853857
0.849144
0.844442
0.83975
0.83507
0.830403
0.825749
0.82111
0.816487
0.811879
0.807287
0.802712
0.798156
0.793617
0.789097
0.784597
0.780117
0.775657
0.771219
0.766804
0.762411
0.758043
0.7537
0.749384
0.745096
0.740838
0.736613
0.732424
0.728274
0.724168
0.720112
0.716114
0.712183
0.708331
0.704575
0.700935
0.697435
0.694104
0.690976
0.688088
0.685476
0.683171
0.681195
0.679555
0.678245
0.677239
0.676499
0.67598
0.675633
0.675413
0.675281
0.675207
0.675152
0.675087
0.67498
0.67479
0.674453
0.673875
0.672929
0.671479
0.669419
0.666714
0.663412
0.65961
0.655424
0.650954
0.646283
0.641471
0.636566
0.631599
0.626595
0.621572
0.616544
0.611519
0.606506
0.60151
0.596535
0.591586
0.586664
0.581771
0.57691
0.572081
0.567286
0.562525
0.557798
0.553106
0.54845
0.543829
0.539244
0.534694
0.53018
0.525702
0.521259
0.516852
0.51248
0.508143
0.503841
0.499575
0.495342
0.491144
0.486981
0.482851
0.478755
0.474693
0.470665
0.46667
0.462708
0.458779
0.454883
0.45102
0.44719
0.443393
0.43963
0.435899
0.432203
0.42854
0.424913
0.421321
0.417767
0.414251
0.410778
0.407344
0.403962
0.40061
0.397289
0.39402
0.390821
0.387712
0.384711
0.381846
0.379152
0.376676
0.374473
0.372595
0.371079
0.369922
0.369085
0.368509
0.368128
0.367894
0.367765
0.367705
0.367683
0.367678
0.367679
0.367681
0.367682
0.367683
0.367682
0.36768
0.367676
0.367673
0.367671
0.36767
0.367669
0.367671
0.367674
0.367677
0.36768
0.367682
0.367684
0.367685
0.367686
0.367686
0.367686
0.367686
0.367686
0.367686
0.367686
0.367685
0.367684
0.367684
0.367683
0.367682
0.367681
0.367681
0.36768
0.367679
0.367678
0.367677
0.367677
0.367676
0.367675
0.367674
0.367674
0.367673
0.367672
0.367671
0.367671
0.36767
0.367669
0.367668
0.367668
0.367667
0.367666
0.367665
0.367665
0.367664
0.367663
0.367662
0.367661
0.367661
0.36766
0.367659
0.367658
0.367657
0.367657
0.367656
0.367655
0.367654
0.367653
0.367652
0.367651
0.36765
0.367649
0.367648
0.367647
0.367646
0.367645
0.367644
0.367643
0.367642
0.36764
0.367639
0.367636
0.367633
0.367628
0.36762
0.367608
0.367589
0.367559
0.367513
0.367442
0.367333
0.36717
0.366929
0.366578
0.366073
0.365361
0.364375
0.363034
0.361246
0.358908
0.355918
0.352177
0.347607
0.342159
0.335831
0.32868
0.320829
0.312469
0.303852
0.295279
0.287077
0.279564
0.273018
0.26763
0.263466
0.260447
0.258387
0.257051
0.256222
0.255726
0.255439
0.255279
0.255194
0.255151
0.255131
0.255124
0.255122
0.255121
0.255122
0.255124
0.255128
0.255133
0.255138
0.255141
0.255144
0.255145
0.255146
0.255146
0.255146
0.255146
0.255146
0.255145
0.255145
0.255144
0.255144
0.255143
0.255142
0.255142
0.255141
0.25514
0.25514
0.255139
0.255139
0.255138
0.255137
0.255137
0.255136
0.255136
0.255135
0.255135
0.255134
0.255134
0.255133
0.255133
0.255132
0.255132
0.255131
0.255131
0.25513
0.25513
0.25513
0.255129
0.255129
0.255128
0.255128
0.255127
0.255127
0.255127
0.255126
0.255126
0.255125
0.255125
0.255124
0.255124
0.255123
0.255123
0.255123
0.255122
0.255122
0.255121
0.255121
0.255119
0.25512
0.255117
0.255119
0.255114
0.255119
0.255109
0.255121
0.255099
0.255125
0.255073
0.255125
0.254997
0.255094
0.254765
0.254897
0.254024
0.253905
0.251221
0.249782
0.240579
0.232752
0.204814
0.167167
0.128282
0.118448
0.116682
0.116393
0.116346
0.116339
0.116338
0.116337
0.116337
0.116337
0.116337
0.116337
0.116337
0.116337
0.116337
0.116337
0.116337
0.116337
0.116337
0.116337
0.116337
0.116337
0.116337
0.116337
0.116337
0.116337
0.116337
0.116337
0.116337
0.116337
0.116337
0.116337
0.116337
0.116337
0.116337
0.116337
0.116337
0.116337
0.116337
0.116337
0.116337
0.116337
0.116337
0.116337
0.116337
0.116337
0.116337
0.116337
0.116337
0.116337
0.116337
0.116337
0.116337
0.116337
0.116337
0.116337
0.116337
0.116337
0.116337
0.116337
0.116337
0.116337
0.116337
0.116337
0.116337
0.116337
0.116337
0.116337
0.116337
0.116337
0.116337
0.116337
0.116337
0.116337
0.116337
0.116337
0.116337
0.116337
0.116337
0.116337
0.116337
0.116337
0.116337
0.116337
0.116337
0.116337
0.116337
0.116337
0.116337
0.116337
0.116337
0.116337
0.116337
0.116337
0.116337
0.116337
0.116337
0.116337
0.116337
0.116337
0.116337
0.116337
0.116337
0.116337
0.116337
0.116337
0.116337
0.116337
0.116337
0.116337
0.116337
0.116337
0.116337
0.116337
0.116337
0.116337
0.116337
0.116337
0.116337
0.116337
0.116337
0.116337
0.116337
0.116337
0.116337
0.116337
0.116337
0.116337
0.116337
0.116337
0.116337
0.116337
0.116337
0.116337
0.116337
0.116337
0.116337
0.116337
0.116337
0.116337
0.116337
0.116337
0.116337
0.116337
0.116337
0.116337
0.116337
0.116337
0.116337
0.116337
0.116337
0.116337
0.116337
0.116337
0.116337
0.116337
0.116337
0.116337
0.116337
0.116337
0.116337
0.116337
0.116337
0.116337
0.116337
0.116337
0.116337
0.116337
0.116337
0.116337
0.116337
0.116337
0.116337
0.116337
0.116337
0.116337
0.116337
0.116337
0.116337
0.116337
0.116337
0.116337
0.116337
0.116337
0.116337
0.116337
0.116337
0.116337
0.116337
0.116337
0.116337
0.116337
0.116337
0.116337
0.116337
0.116337
0.116337
0.116337
0.116337
0.116337
0.116337
0.116337
0.116337
0.116337
0.116337
0.116337
0.116337
0.116337
0.116337
0.116337
0.116337
0.116337
0.116337
0.116337
0.116337
0.116337
0.116337
0.116337
0.116337
0.116337
0.116337
0.116337
0.116337
0.116337
0.116337
0.116337
0.116337
0.116337
0.116337
0.116337
0.116337
0.116337
0.116337
0.116337
0.116337
0.116337
0.116337
0.116337
0.116337
0.116337
0.116337
0.116337
0.116337
0.116337
0.116337
0.116337
0.116337
0.116337
0.116337
0.116337
0.116337
0.116337
0.116337
0.116337
0.116337
0.116337
0.116337
0.116337
0.116337
0.116337
0.116337
0.116337
0.116337
0.116337
0.116337
)
;

boundaryField
{
    sides
    {
        type            calculated;
        value           nonuniform List<scalar> 2(0.116337 0.995488);
    }
    empty
    {
        type            empty;
    }
}


// ************************************************************************* //
