/*--------------------------------*- C++ -*----------------------------------*\
  =========                 |
  \\      /  F ield         | OpenFOAM: The Open Source CFD Toolbox
   \\    /   O peration     | Website:  https://openfoam.org
    \\  /    A nd           | Version:  13
     \\/     M anipulation  |
\*---------------------------------------------------------------------------*/
FoamFile
{
    format      ascii;
    class       volScalarField;
    location    "0.004";
    object      T;
}
// * * * * * * * * * * * * * * * * * * * * * * * * * * * * * * * * * * * * * //

dimensions      [0 0 0 1 0 0 0];

internalField   nonuniform List<scalar> 
1000
(
348.432
348.432
348.432
348.432
348.432
348.432
348.432
348.432
348.432
348.432
348.432
348.432
348.432
348.432
348.432
348.432
348.432
348.432
348.432
348.432
348.432
348.432
348.432
348.432
348.432
348.432
348.432
348.432
348.432
348.432
348.432
348.432
348.432
348.432
348.432
348.432
348.432
348.432
348.432
348.432
348.432
348.432
348.432
348.432
348.432
348.432
348.432
348.432
348.432
348.432
348.432
348.432
348.432
348.432
348.432
348.432
348.432
348.432
348.432
348.432
348.432
348.432
348.432
348.432
348.432
348.432
348.432
348.432
348.432
348.432
348.432
348.432
348.432
348.432
348.432
348.432
348.432
348.432
348.432
348.432
348.432
348.432
348.432
348.432
348.432
348.432
348.432
348.432
348.432
348.432
348.432
348.432
348.432
348.432
348.432
348.432
348.432
348.432
348.432
348.432
348.432
348.432
348.432
348.432
348.432
348.432
348.432
348.432
348.432
348.432
348.432
348.432
348.432
348.432
348.432
348.432
348.432
348.432
348.432
348.432
348.432
348.432
348.432
348.432
348.432
348.432
348.432
348.432
348.432
348.432
348.432
348.432
348.432
348.432
348.432
348.432
348.432
348.432
348.432
348.432
348.432
348.432
348.432
348.432
348.432
348.432
348.432
348.432
348.432
348.432
348.432
348.432
348.432
348.432
348.432
348.432
348.432
348.432
348.432
348.432
348.432
348.432
348.432
348.432
348.432
348.432
348.432
348.432
348.432
348.432
348.432
348.432
348.432
348.432
348.432
348.432
348.432
348.432
348.432
348.432
348.432
348.432
348.432
348.432
348.432
348.432
348.432
348.432
348.432
348.432
348.432
348.432
348.432
348.432
348.432
348.432
348.432
348.432
348.432
348.432
348.432
348.432
348.432
348.432
348.432
348.432
348.432
348.432
348.432
348.432
348.432
348.432
348.432
348.432
348.432
348.432
348.432
348.432
348.432
348.432
348.432
348.432
348.432
348.432
348.432
348.432
348.432
348.432
348.432
348.432
348.432
348.432
348.432
348.432
348.432
348.432
348.432
348.432
348.432
348.432
348.432
348.432
348.432
348.432
348.432
348.432
348.432
348.432
348.432
348.432
348.432
348.432
348.432
348.432
348.432
348.432
348.432
348.432
348.432
348.432
348.432
348.432
348.432
348.432
348.432
348.432
348.432
348.432
348.432
348.432
348.432
348.432
348.432
348.432
348.432
348.432
348.432
348.432
348.432
348.432
348.432
348.432
348.432
348.432
348.432
348.432
348.432
348.432
348.432
348.432
348.432
348.432
348.432
348.432
348.432
348.432
348.432
348.432
348.432
348.432
348.432
348.432
348.432
348.432
348.432
348.432
348.432
348.432
348.432
348.432
348.432
348.432
348.432
348.432
348.432
348.432
348.432
348.432
348.432
348.432
348.432
348.432
348.432
348.432
348.432
348.432
348.432
348.432
348.432
348.431
348.431
348.43
348.428
348.424
348.419
348.41
348.395
348.371
348.335
348.282
348.205
348.101
347.963
347.788
347.574
347.318
347.022
346.686
346.312
345.903
345.46
344.988
344.488
343.963
343.416
342.849
342.264
341.664
341.05
340.423
339.786
339.139
338.483
337.819
337.149
336.473
335.791
335.105
334.414
333.72
333.022
332.321
331.618
330.912
330.205
329.495
328.784
328.072
327.358
326.643
325.927
325.211
324.494
323.777
323.059
322.341
321.622
320.904
320.186
319.467
318.75
318.032
317.315
316.598
315.883
315.167
314.453
313.74
313.029
312.319
311.61
310.904
310.2
309.499
308.801
308.108
307.419
306.736
306.06
305.394
304.738
304.097
303.473
302.871
302.297
301.756
301.255
300.801
300.4
300.055
299.768
299.539
299.362
299.233
299.142
299.081
299.043
299.02
299.006
299
299
299
299
299
299
299
299
299
299
299
299
299
299
299
299
299
299
299
299
299
299
299
299
299
299
299
299
299
299
299
299
299
299
299
299
299
299
299
299
299
299
299
299
299
299
299
299
299
299
299
299
299
299
299
299
299
299
299
299
299
299
299
299
299
299
299
299
299
299
299
299
299
299
299
299
299
299
299
299
299
299
299
299
299
299
299
299
299
299
299
299
299.001
299.001
299.002
299.002
299.002
299.002
299
299
299
299
299
299.001
299.002
299.003
299.004
299.005
299.005
299.006
299.006
299.007
299.007
299.007
299.008
299.008
299.008
299.008
299.008
299.008
299.008
299.009
299.009
299.009
299.009
299.009
299.009
299.009
299.009
299.01
299.01
299.01
299.01
299.01
299.011
299.011
299.011
299.011
299.012
299.012
299.012
299.012
299.013
299.013
299.013
299.014
299.014
299.014
299.015
299.015
299.015
299.015
299.016
299.016
299.017
299.017
299.017
299.018
299.018
299.019
299.019
299.02
299.02
299.021
299.021
299.022
299.022
299.023
299.023
299.024
299.025
299.026
299.028
299.03
299.034
299.04
299.05
299.065
299.089
299.126
299.184
299.272
299.404
299.601
299.888
300.301
300.886
301.7
302.815
304.316
306.299
308.876
312.16
316.271
321.314
327.377
334.51
342.706
351.884
361.867
372.37
383.002
393.28
402.691
410.78
417.261
422.09
425.452
427.661
429.044
429.876
430.359
430.628
430.772
430.844
430.877
430.889
430.892
430.892
430.891
430.887
430.88
430.872
430.863
430.857
430.852
430.85
430.848
430.848
430.847
430.847
430.847
430.848
430.848
430.848
430.849
430.85
430.851
430.851
430.852
430.853
430.853
430.854
430.855
430.855
430.856
430.856
430.857
430.857
430.858
430.858
430.859
430.859
430.859
430.86
430.86
430.86
430.86
430.861
430.861
430.861
430.861
430.861
430.861
430.862
430.862
430.862
430.862
430.862
430.862
430.862
430.862
430.862
430.862
430.862
430.862
430.862
430.862
430.862
430.862
430.861
430.862
430.861
430.861
430.86
430.861
430.858
430.862
430.855
430.863
430.849
430.866
430.833
430.866
430.784
430.846
430.637
430.713
430.156
430.048
428.345
427.226
421.334
414.872
393.843
358.243
313.262
301.301
299.361
299.057
299.009
299.001
299
299
299
299
299
299
299
299
299
299
299
299
299
299
299
299
299
299
299
299
299
299
299
299
299
299
299
299
299
299
299
299
299
299
299
299
299
299
299
299
299
299
299
299
299
299
299
299
299
299
299
299
299
299
299
299
299
299
299
299
299
299
299
299
299
299
299
299
299
299
299
299
299
299
299
299
299
299
299
299
299
299
299
299
299
299
299
299
299
299
299
299
299
299
299
299
299
299
299
299
299
299
299
299
299
299
299
299
299
299
299
299
299
299
299
299
299
299
299
299
299
299
299
299
299
299
299
299
299
299
299
299
299
299
299
299
299
299
299
299
299
299
299
299
299
299
299
299
299
299
299
299
299
299
299
299
299
299
299
299
299
299
299
299
299
299
299
299
299
299
299
299
299
299
299
299
299
299
299
299
299
299
299
299
299
299
299
299
299
299
299
299
299
299
299
299
299
299
299
299
299
299
299
299
299
299
299
299
299
299
299
299
299
299
299
299
299
299
299
299
299
299
299
299
299
299
299
299
299
299
299
299
299
299
299
299
299
299
299
299
299
299
299
299
299
299
299
299
299
299
299
299
299
299
299
299
299
299
299
)
;

boundaryField
{
    sides
    {
        type            zeroGradient;
    }
    empty
    {
        type            empty;
    }
}


// ************************************************************************* //
