/*--------------------------------*- C++ -*----------------------------------*\
  =========                 |
  \\      /  F ield         | OpenFOAM: The Open Source CFD Toolbox
   \\    /   O peration     | Website:  https://openfoam.org
    \\  /    A nd           | Version:  13
     \\/     M anipulation  |
\*---------------------------------------------------------------------------*/
FoamFile
{
    format      ascii;
    class       volVectorField;
    location    "0.004";
    object      U;
}
// * * * * * * * * * * * * * * * * * * * * * * * * * * * * * * * * * * * * * //

dimensions      [0 1 -1 0 0 0 0];

internalField   nonuniform List<vector> 
1000
(
(-2.08456e-18 0 0)
(-7.25111e-15 0 0)
(5.84652e-14 0 0)
(1.24118e-13 0 0)
(1.46821e-14 0 0)
(-1.85651e-17 0 0)
(-4.38609e-14 0 0)
(-1.02233e-13 0 0)
(-4.38472e-14 0 0)
(1.46049e-14 0 0)
(6.56886e-14 0 0)
(-7.2149e-15 0 0)
(5.8354e-14 0 0)
(-4.38052e-14 0 0)
(-7.30197e-14 0 0)
(-1.46452e-14 0 0)
(-2.09943e-17 0 0)
(-7.31456e-15 0 0)
(-2.91381e-14 0 0)
(8.0321e-14 0 0)
(8.76439e-14 0 0)
(2.91803e-14 0 0)
(-1.09483e-13 0 0)
(-5.11599e-14 0 0)
(-4.15019e-17 0 0)
(-4.55237e-18 0 0)
(-7.25103e-15 0 0)
(6.57741e-14 0 0)
(1.31427e-13 0 0)
(6.45728e-17 0 0)
(-7.32635e-15 0 0)
(2.19183e-14 0 0)
(-4.37611e-14 0 0)
(2.19348e-14 0 0)
(9.50026e-14 0 0)
(1.60704e-13 0 0)
(1.02415e-13 0 0)
(5.83648e-14 0 0)
(-2.18856e-14 0 0)
(3.66115e-14 0 0)
(1.16919e-13 0 0)
(8.03866e-14 0 0)
(1.16941e-13 0 0)
(1.97408e-13 0 0)
(1.75352e-13 0 0)
(1.82667e-13 0 0)
(2.26525e-13 0 0)
(1.60932e-13 0 0)
(1.09635e-13 0 0)
(2.9218e-14 0 0)
(-2.19312e-14 0 0)
(-9.49859e-14 0 0)
(1.46101e-14 0 0)
(2.04558e-13 0 0)
(1.68131e-13 0 0)
(8.77006e-14 0 0)
(-1.6078e-13 0 0)
(-1.60732e-13 0 0)
(-1.3888e-13 0 0)
(-3.65443e-14 0 0)
(7.23355e-15 0 0)
(-1.75373e-13 0 0)
(-3.07029e-13 0 0)
(-2.19218e-13 0 0)
(-4.38136e-14 0 0)
(-1.38903e-13 0 0)
(-1.827e-13 0 0)
(-7.29903e-15 0 0)
(5.1142e-14 0 0)
(-1.82708e-13 0 0)
(1.09566e-13 0 0)
(1.97258e-13 0 0)
(-1.82584e-13 0 0)
(-2.7039e-13 0 0)
(7.28691e-15 0 0)
(1.60768e-13 0 0)
(1.31605e-13 0 0)
(3.14236e-13 0 0)
(2.19245e-13 0 0)
(2.7044e-13 0 0)
(3.2153e-13 0 0)
(6.5838e-14 0 0)
(-7.23966e-15 0 0)
(1.60757e-13 0 0)
(2.1928e-13 0 0)
(1.46151e-13 0 0)
(1.53469e-13 0 0)
(1.46172e-13 0 0)
(1.5351e-13 0 0)
(1.75474e-13 0 0)
(1.46132e-13 0 0)
(3.581e-13 0 0)
(5.11688e-13 0 0)
(6.06575e-13 0 0)
(3.72751e-13 0 0)
(2.26621e-13 0 0)
(2.26479e-13 0 0)
(1.60853e-13 0 0)
(7.3138e-14 0 0)
(1.09605e-13 0 0)
(7.31124e-14 0 0)
(2.19565e-14 0 0)
(2.18748e-14 0 0)
(6.73979e-18 0 0)
(-7.31645e-15 0 0)
(-1.31523e-13 0 0)
(-8.77255e-14 0 0)
(-1.53472e-13 0 0)
(-1.24265e-13 0 0)
(-1.16962e-13 0 0)
(-1.46141e-13 0 0)
(-1.60839e-13 0 0)
(-2.77738e-13 0 0)
(-2.04611e-13 0 0)
(-2.55826e-13 0 0)
(-2.70453e-13 0 0)
(-2.63072e-13 0 0)
(-2.26584e-13 0 0)
(-2.48548e-13 0 0)
(-2.26576e-13 0 0)
(-2.48481e-13 0 0)
(-2.48527e-13 0 0)
(-1.89982e-13 0 0)
(-1.46254e-13 0 0)
(-2.11887e-13 0 0)
(-1.38948e-13 0 0)
(-1.24168e-13 0 0)
(-2.9319e-14 0 0)
(7.31427e-14 0 0)
(6.57829e-14 0 0)
(2.19453e-14 0 0)
(-7.30952e-14 0 0)
(-1.90039e-13 0 0)
(-8.04117e-14 0 0)
(-3.65407e-14 0 0)
(1.46323e-14 0 0)
(7.30343e-14 0 0)
(3.65512e-14 0 0)
(5.99616e-17 0 0)
(5.84676e-14 0 0)
(1.46126e-13 0 0)
(1.02382e-13 0 0)
(1.02321e-13 0 0)
(8.03573e-14 0 0)
(1.31557e-13 0 0)
(1.1698e-13 0 0)
(1.60737e-13 0 0)
(1.1702e-13 0 0)
(1.82647e-13 0 0)
(1.31631e-13 0 0)
(1.89927e-13 0 0)
(5.85747e-14 0 0)
(1.09553e-13 0 0)
(9.50892e-14 0 0)
(1.4614e-13 0 0)
(8.04323e-14 0 0)
(9.49925e-14 0 0)
(2.92445e-14 0 0)
(2.1898e-14 0 0)
(-5.11246e-14 0 0)
(-2.19219e-14 0 0)
(-2.77004e-17 0 0)
(2.19214e-14 0 0)
(1.46704e-14 0 0)
(6.57882e-14 0 0)
(1.4611e-13 0 0)
(9.50569e-14 0 0)
(1.02314e-13 0 0)
(8.04096e-14 0 0)
(1.31534e-13 0 0)
(1.09678e-13 0 0)
(1.60727e-13 0 0)
(1.09715e-13 0 0)
(1.75336e-13 0 0)
(1.24321e-13 0 0)
(1.82604e-13 0 0)
(5.13005e-14 0 0)
(1.38813e-13 0 0)
(1.3883e-13 0 0)
(8.03882e-14 0 0)
(-7.24742e-15 0 0)
(2.19278e-14 0 0)
(3.65102e-14 0 0)
(-2.92571e-14 0 0)
(-8.76455e-14 0 0)
(-2.19143e-14 0 0)
(7.26532e-15 0 0)
(1.45974e-14 0 0)
(2.19762e-14 0 0)
(1.45907e-14 0 0)
(-1.45839e-14 0 0)
(-1.46598e-14 0 0)
(-5.84498e-14 0 0)
(-1.38832e-13 0 0)
(-5.85856e-14 0 0)
(-2.4848e-13 0 0)
(-3.36154e-13 0 0)
(-3.58115e-13 0 0)
(-2.77775e-13 0 0)
(-3.14196e-13 0 0)
(-5.85064e-14 0 0)
(5.84406e-14 0 0)
(-2.19485e-14 0 0)
(-7.32345e-15 0 0)
(-1.4617e-13 0 0)
(-2.70412e-13 0 0)
(-1.75395e-13 0 0)
(-9.50179e-14 0 0)
(-3.66108e-14 0 0)
(5.12098e-14 0 0)
(1.02354e-13 0 0)
(1.60775e-13 0 0)
(-7.39096e-15 0 0)
(-2.11872e-13 0 0)
(-3.06989e-13 0 0)
(-2.63098e-13 0 0)
(-2.55862e-13 0 0)
(-2.70384e-13 0 0)
(-2.19299e-13 0 0)
(-1.90123e-13 0 0)
(-3.43515e-13 0 0)
(-5.18857e-13 0 0)
(-4.82357e-13 0 0)
(-3.94743e-13 0 0)
(-4.53046e-13 0 0)
(-2.92416e-13 0 0)
(-2.55787e-13 0 0)
(-1.97353e-13 0 0)
(-2.12049e-13 0 0)
(-2.92352e-13 0 0)
(-3.3611e-13 0 0)
(-2.26593e-13 0 0)
(-1.9008e-13 0 0)
(-5.11993e-14 0 0)
(-1.02262e-13 0 0)
(-1.90002e-13 0 0)
(-5.84674e-14 0 0)
(8.037e-14 0 0)
(3.65801e-14 0 0)
(-6.58074e-14 0 0)
(-3.65046e-14 0 0)
(-5.85282e-14 0 0)
(-1.46223e-13 0 0)
(-2.48377e-13 0 0)
(-8.78419e-14 0 0)
(-1.90005e-13 0 0)
(-2.77702e-13 0 0)
(-2.777e-13 0 0)
(-2.48609e-13 0 0)
(-3.72519e-13 0 0)
(-2.2084e-14 0 0)
(-1.38925e-13 0 0)
(-4.38294e-14 0 0)
(3.6505e-14 0 0)
(9.50691e-14 0 0)
(1.16923e-13 0 0)
(2.70463e-13 0 0)
(3.72745e-13 0 0)
(4.75068e-13 0 0)
(5.40875e-13 0 0)
(4.96982e-13 0 0)
(5.92053e-13 0 0)
(6.57808e-13 0 0)
(6.35894e-13 0 0)
(6.65068e-13 0 0)
(5.99323e-13 0 0)
(4.89716e-13 0 0)
(4.38471e-13 0 0)
(3.36283e-13 0 0)
(3.58085e-13 0 0)
(3.1435e-13 0 0)
(3.36146e-13 0 0)
(2.92419e-13 0 0)
(1.89988e-13 0 0)
(2.70521e-13 0 0)
(5.62737e-13 0 0)
(6.43143e-13 0 0)
(5.7013e-13 0 0)
(6.28608e-13 0 0)
(7.16243e-13 0 0)
(6.57819e-13 0 0)
(6.79733e-13 0 0)
(7.3083e-13 0 0)
(7.52836e-13 0 0)
(7.30962e-13 0 0)
(7.45482e-13 0 0)
(8.40539e-13 0 0)
(8.77075e-13 0 0)
(8.03964e-13 0 0)
(7.0166e-13 0 0)
(6.87052e-13 0 0)
(7.67457e-13 0 0)
(8.7706e-13 0 0)
(8.03989e-13 0 0)
(8.84403e-13 0 0)
(9.79392e-13 0 0)
(1.12555e-12 0 0)
(1.08173e-12 0 0)
(1.11827e-12 0 0)
(1.29374e-12 0 0)
(1.87093e-12 0 0)
(2.49236e-12 0 0)
(4.26848e-12 0 0)
(8.60997e-12 0 0)
(1.70227e-11 0 0)
(3.87521e-11 0 0)
(8.6129e-11 0 0)
(1.94631e-10 0 0)
(4.4049e-10 0 0)
(9.91426e-10 0 0)
(2.22059e-09 0 0)
(4.939e-09 0 0)
(1.09009e-08 0 0)
(2.38832e-08 0 0)
(5.19041e-08 0 0)
(1.11896e-07 0 0)
(2.39198e-07 0 0)
(5.06989e-07 0 0)
(1.06514e-06 0 0)
(2.2177e-06 0 0)
(4.57484e-06 0 0)
(9.34797e-06 0 0)
(1.89149e-05 0 0)
(3.78887e-05 0 0)
(7.51082e-05 0 0)
(0.000147294 0 0)
(0.000285648 0 0)
(0.000547567 0 0)
(0.00103704 0 0)
(0.00193939 0 0)
(0.0035792 0 0)
(0.00651403 0 0)
(0.0116817 0 0)
(0.0206224 0 0)
(0.0357976 0 0)
(0.0610157 0 0)
(0.101943 0 0)
(0.166605 0 0)
(0.265691 0 0)
(0.412387 0 0)
(0.62153 0 0)
(0.908156 0 0)
(1.28582 0 0)
(1.76525 0 0)
(2.35356 0 0)
(3.05416 0 0)
(3.8671 0 0)
(4.78963 0 0)
(5.81691 0 0)
(6.94268 0 0)
(8.15981 0 0)
(9.46081 0 0)
(10.8381 0 0)
(12.2845 0 0)
(13.793 0 0)
(15.3573 0 0)
(16.9715 0 0)
(18.6302 0 0)
(20.3287 0 0)
(22.0627 0 0)
(23.8285 0 0)
(25.6226 0 0)
(27.4421 0 0)
(29.2843 0 0)
(31.1469 0 0)
(33.0278 0 0)
(34.9252 0 0)
(36.8374 0 0)
(38.7631 0 0)
(40.7009 0 0)
(42.6498 0 0)
(44.6086 0 0)
(46.5765 0 0)
(48.5527 0 0)
(50.5364 0 0)
(52.527 0 0)
(54.5238 0 0)
(56.5264 0 0)
(58.5342 0 0)
(60.5467 0 0)
(62.5636 0 0)
(64.5844 0 0)
(66.6088 0 0)
(68.6365 0 0)
(70.6671 0 0)
(72.7003 0 0)
(74.7359 0 0)
(76.7735 0 0)
(78.8129 0 0)
(80.8537 0 0)
(82.8958 0 0)
(84.9388 0 0)
(86.9824 0 0)
(89.0264 0 0)
(91.0703 0 0)
(93.1138 0 0)
(95.1565 0 0)
(97.1979 0 0)
(99.2376 0 0)
(101.275 0 0)
(103.309 0 0)
(105.339 0 0)
(107.364 0 0)
(109.383 0 0)
(111.395 0 0)
(113.396 0 0)
(115.385 0 0)
(117.36 0 0)
(119.314 0 0)
(121.245 0 0)
(123.145 0 0)
(125.006 0 0)
(126.817 0 0)
(128.566 0 0)
(130.236 0 0)
(131.811 0 0)
(133.27 0 0)
(134.594 0 0)
(135.766 0 0)
(136.773 0 0)
(137.61 0 0)
(138.281 0 0)
(138.796 0 0)
(139.175 0 0)
(139.441 0 0)
(139.619 0 0)
(139.732 0 0)
(139.799 0 0)
(139.839 0 0)
(139.864 0 0)
(139.892 0 0)
(139.939 0 0)
(140.022 0 0)
(140.168 0 0)
(140.42 0 0)
(140.832 0 0)
(141.465 0 0)
(142.367 0 0)
(143.555 0 0)
(145.013 0 0)
(146.699 0 0)
(148.568 0 0)
(150.577 0 0)
(152.691 0 0)
(154.885 0 0)
(157.138 0 0)
(159.438 0 0)
(161.773 0 0)
(164.136 0 0)
(166.52 0 0)
(168.923 0 0)
(171.339 0 0)
(173.768 0 0)
(176.205 0 0)
(178.651 0 0)
(181.104 0 0)
(183.563 0 0)
(186.026 0 0)
(188.493 0 0)
(190.965 0 0)
(193.439 0 0)
(195.916 0 0)
(198.396 0 0)
(200.878 0 0)
(203.362 0 0)
(205.848 0 0)
(208.335 0 0)
(210.824 0 0)
(213.314 0 0)
(215.806 0 0)
(218.299 0 0)
(220.793 0 0)
(223.288 0 0)
(225.783 0 0)
(228.28 0 0)
(230.778 0 0)
(233.277 0 0)
(235.776 0 0)
(238.276 0 0)
(240.777 0 0)
(243.279 0 0)
(245.781 0 0)
(248.283 0 0)
(250.787 0 0)
(253.29 0 0)
(255.794 0 0)
(258.298 0 0)
(260.801 0 0)
(263.305 0 0)
(265.807 0 0)
(268.309 0 0)
(270.81 0 0)
(273.308 0 0)
(275.804 0 0)
(278.296 0 0)
(280.783 0 0)
(283.264 0 0)
(285.738 0 0)
(288.2 0 0)
(290.654 0 0)
(293.096 0 0)
(295.536 0 0)
(297.961 0 0)
(300.355 0 0)
(302.7 0 0)
(304.982 0 0)
(307.177 0 0)
(309.256 0 0)
(311.18 0 0)
(312.903 0 0)
(314.379 0 0)
(315.576 0 0)
(316.493 0 0)
(317.158 0 0)
(317.617 0 0)
(317.92 0 0)
(318.107 0 0)
(318.209 0 0)
(318.257 0 0)
(318.275 0 0)
(318.279 0 0)
(318.277 0 0)
(318.275 0 0)
(318.274 0 0)
(318.273 0 0)
(318.273 0 0)
(318.275 0 0)
(318.278 0 0)
(318.281 0 0)
(318.282 0 0)
(318.283 0 0)
(318.283 0 0)
(318.282 0 0)
(318.278 0 0)
(318.275 0 0)
(318.272 0 0)
(318.27 0 0)
(318.268 0 0)
(318.267 0 0)
(318.265 0 0)
(318.265 0 0)
(318.264 0 0)
(318.263 0 0)
(318.263 0 0)
(318.263 0 0)
(318.263 0 0)
(318.263 0 0)
(318.263 0 0)
(318.263 0 0)
(318.264 0 0)
(318.264 0 0)
(318.264 0 0)
(318.264 0 0)
(318.265 0 0)
(318.265 0 0)
(318.265 0 0)
(318.265 0 0)
(318.266 0 0)
(318.266 0 0)
(318.266 0 0)
(318.266 0 0)
(318.266 0 0)
(318.267 0 0)
(318.267 0 0)
(318.267 0 0)
(318.267 0 0)
(318.267 0 0)
(318.267 0 0)
(318.267 0 0)
(318.267 0 0)
(318.268 0 0)
(318.268 0 0)
(318.268 0 0)
(318.268 0 0)
(318.268 0 0)
(318.268 0 0)
(318.268 0 0)
(318.268 0 0)
(318.268 0 0)
(318.268 0 0)
(318.268 0 0)
(318.268 0 0)
(318.268 0 0)
(318.268 0 0)
(318.268 0 0)
(318.268 0 0)
(318.268 0 0)
(318.268 0 0)
(318.268 0 0)
(318.268 0 0)
(318.268 0 0)
(318.268 0 0)
(318.268 0 0)
(318.268 0 0)
(318.268 0 0)
(318.268 0 0)
(318.268 0 0)
(318.268 0 0)
(318.268 0 0)
(318.268 0 0)
(318.268 0 0)
(318.268 0 0)
(318.268 0 0)
(318.268 0 0)
(318.268 0 0)
(318.268 0 0)
(318.268 0 0)
(318.268 0 0)
(318.268 0 0)
(318.268 0 0)
(318.268 0 0)
(318.268 0 0)
(318.268 0 0)
(318.268 0 0)
(318.268 0 0)
(318.268 0 0)
(318.268 0 0)
(318.269 0 0)
(318.27 0 0)
(318.271 0 0)
(318.274 0 0)
(318.278 0 0)
(318.283 0 0)
(318.289 0 0)
(318.297 0 0)
(318.306 0 0)
(318.314 0 0)
(318.321 0 0)
(318.325 0 0)
(318.325 0 0)
(318.321 0 0)
(318.313 0 0)
(318.303 0 0)
(318.294 0 0)
(318.287 0 0)
(318.284 0 0)
(318.283 0 0)
(318.282 0 0)
(318.282 0 0)
(318.282 0 0)
(318.281 0 0)
(318.281 0 0)
(318.282 0 0)
(318.281 0 0)
(318.281 0 0)
(318.281 0 0)
(318.281 0 0)
(318.28 0 0)
(318.28 0 0)
(318.28 0 0)
(318.28 0 0)
(318.28 0 0)
(318.28 0 0)
(318.279 0 0)
(318.279 0 0)
(318.279 0 0)
(318.279 0 0)
(318.279 0 0)
(318.278 0 0)
(318.278 0 0)
(318.278 0 0)
(318.278 0 0)
(318.277 0 0)
(318.277 0 0)
(318.277 0 0)
(318.277 0 0)
(318.277 0 0)
(318.276 0 0)
(318.276 0 0)
(318.276 0 0)
(318.276 0 0)
(318.275 0 0)
(318.275 0 0)
(318.275 0 0)
(318.275 0 0)
(318.274 0 0)
(318.274 0 0)
(318.274 0 0)
(318.273 0 0)
(318.273 0 0)
(318.273 0 0)
(318.273 0 0)
(318.272 0 0)
(318.272 0 0)
(318.272 0 0)
(318.271 0 0)
(318.271 0 0)
(318.27 0 0)
(318.27 0 0)
(318.27 0 0)
(318.269 0 0)
(318.269 0 0)
(318.269 0 0)
(318.268 0 0)
(318.268 0 0)
(318.267 0 0)
(318.267 0 0)
(318.266 0 0)
(318.266 0 0)
(318.265 0 0)
(318.265 0 0)
(318.265 0 0)
(318.264 0 0)
(318.263 0 0)
(318.263 0 0)
(318.262 0 0)
(318.262 0 0)
(318.261 0 0)
(318.26 0 0)
(318.26 0 0)
(318.259 0 0)
(318.259 0 0)
(318.256 0 0)
(318.258 0 0)
(318.252 0 0)
(318.257 0 0)
(318.246 0 0)
(318.258 0 0)
(318.237 0 0)
(318.26 0 0)
(318.217 0 0)
(318.252 0 0)
(318.162 0 0)
(318.198 0 0)
(317.991 0 0)
(317.954 0 0)
(317.462 0 0)
(316.904 0 0)
(315.748 0 0)
(312.379 0 0)
(308.887 0 0)
(294.533 0 0)
(279.298 0 0)
(227.649 0 0)
(144.99 0 0)
(36.9227 0 0)
(6.41028 0 0)
(1.03584 0 0)
(0.165444 0 0)
(0.0263757 0 0)
(0.00420279 0 0)
(0.000669658 0 0)
(0.000106701 0 0)
(1.70016e-05 0 0)
(2.709e-06 0 0)
(4.31647e-07 0 0)
(6.87757e-08 0 0)
(1.09585e-08 0 0)
(1.7443e-09 0 0)
(2.76965e-10 0 0)
(4.3127e-11 0 0)
(6.19223e-12 0 0)
(2.98398e-13 0 0)
(-3.98802e-13 0 0)
(-3.44624e-13 0 0)
(-3.43358e-13 0 0)
(-1.19303e-13 0 0)
(-4.21041e-13 0 0)
(-3.3546e-13 0 0)
(-2.89666e-13 0 0)
(-2.8827e-13 0 0)
(8.53133e-14 0 0)
(2.72619e-13 0 0)
(-5.4183e-14 0 0)
(8.56848e-14 0 0)
(2.02584e-13 0 0)
(8.70555e-14 0 0)
(-4.75444e-18 0 0)
(9.37678e-14 0 0)
(1.95487e-13 0 0)
(2.11219e-13 0 0)
(3.04868e-13 0 0)
(3.19739e-13 0 0)
(1.80301e-13 0 0)
(1.8826e-13 0 0)
(4.99696e-13 0 0)
(2.57911e-13 0 0)
(2.26987e-13 0 0)
(1.40582e-13 0 0)
(-1.57577e-14 0 0)
(-1.32702e-13 0 0)
(-3.95141e-14 0 0)
(1.32375e-13 0 0)
(-9.15863e-14 0 0)
(2.03043e-13 0 0)
(3.02658e-13 0 0)
(1.33591e-13 0 0)
(7.7959e-14 0 0)
(-1.87352e-13 0 0)
(6.31479e-14 0 0)
(1.86797e-13 0 0)
(3.96408e-14 0 0)
(-1.40468e-13 0 0)
(3.8898e-14 0 0)
(1.17077e-13 0 0)
(5.49812e-14 0 0)
(-7.56664e-15 0 0)
(-3.98117e-14 0 0)
(-7.96797e-15 0 0)
(-6.18221e-14 0 0)
(2.03469e-13 0 0)
(2.57606e-13 0 0)
(1.79969e-13 0 0)
(8.59349e-14 0 0)
(1.48457e-13 0 0)
(2.27076e-13 0 0)
(2.96153e-13 0 0)
(2.81274e-13 0 0)
(2.51937e-13 0 0)
(3.36223e-13 0 0)
(4.36508e-13 0 0)
(1.56696e-13 0 0)
(8.6319e-14 0 0)
(7.7762e-14 0 0)
(1.87185e-13 0 0)
(2.11055e-13 0 0)
(3.1348e-13 0 0)
(5.15654e-13 0 0)
(3.82946e-13 0 0)
(1.56368e-13 0 0)
(2.11319e-13 0 0)
(2.10991e-13 0 0)
(2.8075e-13 0 0)
(2.81623e-13 0 0)
(3.98908e-13 0 0)
(6.41357e-13 0 0)
(5.94323e-13 0 0)
(5.2389e-13 0 0)
(5.46918e-13 0 0)
(3.36515e-13 0 0)
(2.03627e-13 0 0)
(5.93051e-13 0 0)
(6.87238e-13 0 0)
(3.92684e-13 0 0)
(4.77277e-13 0 0)
(6.93711e-13 0 0)
(5.40178e-13 0 0)
(6.01805e-13 0 0)
(5.78288e-13 0 0)
(6.41537e-13 0 0)
(8.36194e-13 0 0)
(6.88562e-13 0 0)
(6.40873e-13 0 0)
(5.70746e-13 0 0)
(5.39418e-13 0 0)
(4.61332e-13 0 0)
(4.45493e-13 0 0)
(4.60774e-13 0 0)
(2.5785e-13 0 0)
(1.59709e-14 0 0)
(1.49256e-13 0 0)
(2.88499e-13 0 0)
(8.61992e-14 0 0)
(-7.68927e-15 0 0)
(1.72152e-13 0 0)
(3.59766e-13 0 0)
(4.05805e-13 0 0)
(6.40738e-13 0 0)
(5.72051e-13 0 0)
(7.66342e-13 0 0)
(8.97229e-13 0 0)
(7.43554e-13 0 0)
(7.73508e-13 0 0)
(7.112e-13 0 0)
(7.66803e-13 0 0)
(7.58138e-13 0 0)
(5.71184e-13 0 0)
(5.94092e-13 0 0)
(5.31506e-13 0 0)
(4.21792e-13 0 0)
(5.08291e-13 0 0)
(5.31899e-13 0 0)
(6.01607e-13 0 0)
(3.20371e-13 0 0)
(2.18735e-13 0 0)
(2.58654e-13 0 0)
(1.01373e-13 0 0)
(1.09607e-13 0 0)
(1.40446e-13 0 0)
(1.17407e-13 0 0)
(-4.66676e-14 0 0)
(4.63133e-14 0 0)
(1.71759e-13 0 0)
(7.17009e-14 0 0)
(2.19107e-13 0 0)
(2.16868e-13 0 0)
(2.43268e-14 0 0)
(-1.09799e-13 0 0)
(-2.58201e-13 0 0)
(-3.11925e-13 0 0)
(-3.36292e-13 0 0)
(-2.81064e-13 0 0)
(-1.17453e-13 0 0)
(-2.18907e-13 0 0)
(-1.87463e-13 0 0)
(-2.26519e-13 0 0)
(-2.424e-13 0 0)
(-2.12036e-13 0 0)
(-4.60686e-13 0 0)
(-2.96899e-13 0 0)
(-3.67641e-13 0 0)
(-2.81593e-13 0 0)
(-2.42894e-13 0 0)
(-5.77708e-13 0 0)
(-3.51797e-13 0 0)
(-3.8347e-13 0 0)
(-4.28718e-13 0 0)
(-2.8965e-13 0 0)
(-4.30146e-13 0 0)
(-5.94174e-13 0 0)
(-4.53157e-13 0 0)
(-3.28856e-13 0 0)
(-3.59607e-13 0 0)
(-3.4327e-13 0 0)
(-1.96242e-13 0 0)
(7.89265e-15 0 0)
(3.51944e-13 0 0)
(6.40438e-13 0 0)
(5.38846e-13 0 0)
(1.41561e-13 0 0)
(3.20765e-13 0 0)
(4.37626e-13 0 0)
(3.75278e-13 0 0)
(3.7544e-13 0 0)
(5.15999e-13 0 0)
(5.6287e-13 0 0)
(6.25283e-13 0 0)
(5.07439e-13 0 0)
(2.03899e-13 0 0)
(1.33224e-13 0 0)
(2.18897e-13 0 0)
(1.56173e-13 0 0)
(2.42783e-13 0 0)
(5.86183e-13 0 0)
(6.87393e-13 0 0)
(6.02274e-13 0 0)
(8.75454e-13 0 0)
(1.016e-12 0 0)
(9.14786e-13 0 0)
(8.44373e-13 0 0)
(9.69652e-13 0 0)
(1.06342e-12 0 0)
(9.9273e-13 0 0)
(1.03127e-12 0 0)
(7.58679e-13 0 0)
(5.78492e-13 0 0)
(5.3143e-13 0 0)
(4.69312e-13 0 0)
(4.77004e-13 0 0)
(6.64489e-13 0 0)
(8.99328e-13 0 0)
(8.05045e-13 0 0)
(6.71415e-13 0 0)
(5.32307e-13 0 0)
(4.45653e-13 0 0)
(4.22049e-13 0 0)
(3.676e-13 0 0)
(3.98819e-13 0 0)
(4.76966e-13 0 0)
(6.01666e-13 0 0)
(7.42724e-13 0 0)
(6.25447e-13 0 0)
(6.56568e-13 0 0)
(6.87983e-13 0 0)
(7.66173e-13 0 0)
(6.88007e-13 0 0)
(6.3337e-13 0 0)
(5.94152e-13 0 0)
(5.15566e-13 0 0)
(3.91229e-13 0 0)
(3.67309e-13 0 0)
(4.61048e-13 0 0)
(5.5525e-13 0 0)
(6.6461e-13 0 0)
(6.48819e-13 0 0)
(6.10179e-13 0 0)
(6.33198e-13 0 0)
(5.46208e-13 0 0)
(4.8543e-13 0 0)
(4.29923e-13 0 0)
(2.96947e-13 0 0)
(7.04673e-14 0 0)
(-2.32088e-14 0 0)
(2.353e-14 0 0)
(6.98781e-14 0 0)
(3.14143e-14 0 0)
(5.8483e-17 0 0)
(-4.46581e-17 0 0)
(-7.86307e-15 0 0)
(-2.34072e-14 0 0)
(-3.12127e-14 0 0)
(-3.11639e-14 0 0)
(-1.53711e-14 0 0)
(5.40536e-14 0 0)
(-7.26297e-15 0 0)
(4.64669e-14 0 0)
(1.56181e-14 0 0)
(-1.5332e-14 0 0)
(-1.61823e-16 0 0)
(-7.76565e-15 0 0)
)
;

boundaryField
{
    sides
    {
        type            zeroGradient;
    }
    empty
    {
        type            empty;
    }
}


// ************************************************************************* //
