/*--------------------------------*- C++ -*----------------------------------*\
  =========                 |
  \\      /  F ield         | OpenFOAM: The Open Source CFD Toolbox
   \\    /   O peration     | Website:  https://openfoam.org
    \\  /    A nd           | Version:  13
     \\/     M anipulation  |
\*---------------------------------------------------------------------------*/
FoamFile
{
    format      ascii;
    class       volScalarField;
    location    "0.005";
    object      mag(U);
}
// * * * * * * * * * * * * * * * * * * * * * * * * * * * * * * * * * * * * * //

dimensions      [0 1 -1 0 0 0 0];

internalField   nonuniform List<scalar> 
1000
(
2.59264e-18
7.23657e-15
5.84637e-14
1.24084e-13
1.46984e-14
2.32317e-17
4.38629e-14
1.0221e-13
4.38455e-14
1.46016e-14
6.56655e-14
7.19092e-15
5.83243e-14
7.24853e-15
6.56933e-14
5.85052e-14
7.28411e-15
1.16937e-13
1.90151e-13
1.46083e-13
1.16865e-13
5.84034e-14
3.63575e-14
2.92431e-14
2.18816e-14
8.77015e-14
1.82775e-13
1.90023e-13
1.53345e-13
1.68168e-13
1.02311e-13
7.30981e-15
5.12626e-14
3.65416e-14
2.92434e-14
1.75517e-13
1.02241e-13
4.39679e-14
2.41132e-13
3.14205e-13
1.97374e-13
4.38434e-14
1.82722e-13
1.97382e-13
4.38975e-14
8.7785e-14
1.09706e-13
2.77573e-13
3.58094e-13
1.53513e-13
1.45777e-14
3.64932e-14
7.30713e-14
3.66334e-14
1.73834e-18
9.50683e-14
3.28831e-13
4.09216e-13
5.40838e-13
7.31273e-14
7.19857e-15
1.60746e-13
2.63138e-13
2.04596e-13
1.53475e-13
1.53508e-13
8.03465e-14
2.92271e-14
1.38783e-13
5.1085e-14
1.60681e-13
7.29412e-14
3.79855e-13
3.87253e-13
6.57459e-14
5.11532e-13
3.87451e-13
4.67673e-13
3.43527e-13
1.24274e-13
6.56576e-14
8.7616e-14
1.45076e-14
1.60742e-13
2.99641e-13
1.90047e-13
3.43484e-13
2.70403e-13
1.16977e-13
1.68176e-13
7.30711e-14
2.92323e-13
5.48201e-13
4.38436e-13
3.28922e-13
3.801e-13
2.77625e-13
2.04729e-13
2.33958e-13
3.8003e-13
4.89685e-13
2.63172e-13
2.70389e-13
2.55779e-13
1.16941e-13
1.46106e-13
7.27877e-15
4.38813e-14
1.38846e-13
2.55793e-13
2.48547e-13
3.50774e-13
1.16948e-13
1.68072e-13
1.46173e-13
1.16972e-13
1.97285e-13
2.26589e-13
2.48543e-13
2.55819e-13
2.63089e-13
2.26596e-13
1.89984e-13
1.46273e-13
2.11862e-13
1.38956e-13
1.24153e-13
2.93183e-14
7.31207e-14
6.57733e-14
2.19343e-14
7.30971e-14
1.89995e-13
8.04211e-14
3.65395e-14
1.46322e-14
7.30152e-14
3.6552e-14
7.8049e-17
5.84727e-14
1.46102e-13
1.02388e-13
1.02318e-13
8.03706e-14
1.31546e-13
1.16989e-13
1.60722e-13
1.17039e-13
1.82627e-13
1.31648e-13
1.89894e-13
5.86074e-14
1.09543e-13
9.50997e-14
1.46119e-13
8.04429e-14
9.49818e-14
2.92534e-14
2.18859e-14
5.11047e-14
2.1922e-14
2.82095e-17
2.19171e-14
1.46808e-14
6.57929e-14
1.46086e-13
9.50656e-14
1.0231e-13
8.04227e-14
1.31522e-13
1.0969e-13
1.60709e-13
1.09735e-13
1.75316e-13
1.24338e-13
1.82571e-13
5.134e-14
1.38798e-13
1.38817e-13
8.03834e-14
7.22517e-15
2.19252e-14
3.64941e-14
2.92548e-14
8.76211e-14
2.19203e-14
7.26045e-15
1.45969e-14
2.19728e-14
1.45862e-14
1.45765e-14
1.46728e-14
5.84533e-14
1.38804e-13
5.8635e-14
2.48463e-13
3.36138e-13
3.58092e-13
2.55873e-13
3.14139e-13
6.58504e-14
7.37727e-15
1.31551e-13
2.92763e-14
1.16931e-13
1.75365e-13
8.0393e-14
8.03986e-14
6.58556e-14
1.68056e-13
1.46149e-13
1.97375e-13
2.85139e-13
3.1418e-13
2.63127e-13
2.4849e-13
2.2663e-13
2.63065e-13
2.77774e-13
3.07097e-13
4.53141e-13
5.84596e-13
4.89665e-13
4.23998e-13
4.45702e-13
2.85129e-13
2.48476e-13
1.82753e-13
1.97445e-13
2.63097e-13
2.04534e-13
1.24297e-13
2.70432e-13
1.02379e-13
8.03487e-14
9.49671e-14
1.46221e-14
1.68043e-13
1.0235e-13
1.46103e-14
2.19603e-14
9.58095e-17
1.38901e-13
2.84873e-13
1.82878e-13
2.04642e-13
2.11924e-13
1.46112e-13
7.32131e-14
8.00777e-14
3.43285e-13
3.28845e-13
2.77777e-13
1.89995e-13
1.68153e-13
1.75402e-13
2.04679e-13
1.90014e-13
2.70429e-13
7.74769e-13
1.36676e-12
2.96746e-12
5.68638e-12
1.32877e-11
2.79714e-11
6.21701e-11
1.33389e-10
2.92015e-10
6.27081e-10
1.34966e-09
2.87459e-09
6.09908e-09
1.28365e-08
2.68467e-08
5.57238e-08
1.14832e-07
2.34837e-07
4.76572e-07
9.59495e-07
1.91617e-06
3.79496e-06
7.4519e-06
1.45047e-05
2.79782e-05
5.34662e-05
0.000101194
0.000189626
0.000351684
0.000645271
0.00117077
0.00209951
0.00371909
0.00650338
0.0112175
0.0190685
0.0319109
0.0525052
0.084809
0.134239
0.207809
0.314013
0.462392
0.6628
0.924543
1.2556
1.66208
2.14797
2.71512
3.36345
4.09127
4.8956
5.77254
6.71759
7.72592
8.79259
9.91271
11.0816
12.2947
13.5479
14.8373
16.1595
17.5111
18.8894
20.2918
21.7158
23.1594
24.6207
26.098
27.5899
29.0949
30.612
32.1399
33.6778
35.2248
36.7801
38.3431
39.913
41.4893
43.0715
44.6592
46.2519
47.8492
49.4507
51.0563
52.6654
54.278
55.8937
57.5123
59.1336
60.7574
62.3835
64.0117
65.6419
67.274
68.9077
70.5429
72.1796
73.8175
75.4566
77.0967
78.7377
80.3795
82.0219
83.6649
85.3084
86.9521
88.596
90.2399
91.8836
93.5271
95.1701
96.8123
98.4537
100.094
101.733
103.37
105.005
106.637
108.267
109.892
111.514
113.13
114.739
116.341
117.934
119.516
121.084
122.636
124.167
125.673
127.147
128.584
129.973
131.305
132.569
133.75
134.838
135.819
136.685
137.428
138.049
138.552
138.944
139.24
139.455
139.605
139.704
139.767
139.804
139.825
139.837
139.845
139.855
139.87
139.894
139.935
140.005
140.122
140.317
140.624
141.085
141.734
142.591
143.651
144.894
146.288
147.806
149.419
151.107
152.853
154.644
156.47
158.325
160.202
162.098
164.008
165.93
167.863
169.804
171.753
173.707
175.666
177.63
179.598
181.569
183.543
185.52
187.499
189.48
191.462
193.447
195.432
197.42
199.408
201.397
203.388
205.379
207.372
209.365
211.358
213.353
215.348
217.344
219.34
221.337
223.335
225.333
227.331
229.33
231.329
233.329
235.329
237.33
239.331
241.332
243.334
245.335
247.338
249.34
251.343
253.345
255.348
257.351
259.354
261.357
263.36
265.362
267.364
269.365
271.366
273.365
275.363
277.36
279.354
281.345
283.333
285.317
287.295
289.267
291.234
293.196
295.159
297.117
299.061
300.984
302.88
304.741
306.556
308.313
309.991
311.568
313.013
314.294
315.385
316.271
316.957
317.46
317.809
318.033
318.166
318.234
318.263
318.273
318.276
318.277
318.278
318.279
318.28
318.282
318.284
318.284
318.28
318.277
318.274
318.273
318.271
318.27
318.269
318.269
318.268
318.268
318.268
318.268
318.268
318.268
318.268
318.269
318.269
318.269
318.269
318.27
318.27
318.27
318.271
318.271
318.271
318.271
318.272
318.272
318.272
318.272
318.272
318.272
318.273
318.273
318.273
318.273
318.273
318.273
318.273
318.273
318.274
318.274
318.274
318.274
318.274
318.274
318.274
318.274
318.274
318.274
318.274
318.274
318.275
318.275
318.275
318.275
318.275
318.275
318.275
318.275
318.275
318.275
318.275
318.275
318.275
318.275
318.275
318.275
318.275
318.275
318.275
318.275
318.275
318.275
318.275
318.275
318.275
318.275
318.275
318.275
318.275
318.275
318.275
318.275
318.275
318.275
318.275
318.275
318.275
318.275
318.275
318.275
318.275
318.275
318.275
318.275
318.275
318.275
318.275
318.275
318.275
318.275
318.275
318.275
318.275
318.275
318.275
318.275
318.275
318.275
318.275
318.274
318.274
318.274
318.275
318.275
318.275
318.275
318.276
318.278
318.279
318.282
318.286
318.29
318.296
318.302
318.308
318.314
318.319
318.322
318.322
318.319
318.314
318.307
318.3
318.295
318.291
318.289
318.288
318.288
318.287
318.287
318.287
318.287
318.287
318.287
318.287
318.287
318.287
318.287
318.286
318.286
318.286
318.286
318.286
318.286
318.286
318.286
318.286
318.285
318.285
318.285
318.285
318.285
318.285
318.285
318.285
318.284
318.284
318.284
318.284
318.284
318.284
318.284
318.284
318.283
318.283
318.283
318.283
318.283
318.283
318.283
318.282
318.282
318.282
318.282
318.282
318.282
318.281
318.281
318.281
318.281
318.281
318.281
318.28
318.28
318.28
318.28
318.28
318.279
318.279
318.279
318.279
318.278
318.278
318.278
318.278
318.278
318.277
318.277
318.277
318.277
318.276
318.276
318.276
318.276
318.275
318.275
318.275
318.274
318.274
318.274
318.273
318.273
318.273
318.272
318.272
318.272
318.271
318.271
318.271
318.27
318.27
318.269
318.269
318.268
318.268
318.267
318.268
318.265
318.267
318.262
318.266
318.257
318.267
318.25
318.27
318.235
318.267
318.193
318.232
318.066
318.064
317.665
317.342
316.423
314.185
311.631
301.457
291.316
253.735
198.401
81.3513
15.8561
2.60628
0.41744
0.0665843
0.0106109
0.00169075
0.000269391
4.29222e-05
6.83884e-06
1.08964e-06
1.73616e-07
2.7662e-08
4.40773e-09
7.02717e-10
1.11948e-10
1.76621e-11
3.24296e-12
3.91354e-13
1.41239e-13
1.32656e-13
1.16721e-13
1.37938e-16
9.46443e-14
3.12189e-13
1.87493e-13
1.79895e-13
1.80056e-13
1.48546e-13
2.65059e-13
5.08211e-13
4.77295e-13
5.31468e-13
3.83608e-13
5.08461e-13
8.82529e-13
7.66751e-13
9.07785e-13
1.3038e-12
1.16357e-12
6.59299e-13
9.46432e-13
1.256e-12
9.39083e-13
8.2056e-13
5.62725e-13
3.68064e-13
3.20324e-13
3.05484e-13
2.73303e-13
2.34553e-13
1.95549e-13
2.50186e-13
2.81429e-13
3.74603e-13
3.59273e-13
2.43209e-13
3.36541e-13
2.57355e-13
3.12889e-13
2.81582e-13
2.42961e-13
6.33427e-13
1.00733e-12
1.0315e-12
8.06911e-13
9.06945e-13
9.82864e-13
7.59451e-13
7.26508e-13
6.7226e-13
7.27608e-13
6.79686e-13
5.24605e-13
5.54889e-13
4.92389e-13
4.0643e-13
5.08238e-13
5.63174e-13
6.47966e-13
3.36292e-13
2.42399e-13
2.97424e-13
1.01633e-13
9.3913e-14
2.3816e-14
1.87537e-13
3.66616e-13
8.54334e-15
2.49492e-13
4.51431e-14
1.48534e-13
2.00861e-13
7.71244e-14
1.5682e-13
3.51681e-13
2.49162e-13
1.09817e-13
2.73179e-13
3.91276e-13
3.12692e-13
2.49963e-13
2.49997e-13
2.18731e-13
1.73197e-13
2.49331e-13
1.87468e-13
7.85313e-14
2.34745e-13
3.60623e-13
8.03586e-13
7.19461e-13
5.47899e-13
6.00293e-13
5.00911e-13
5.47496e-13
4.53322e-13
2.31915e-14
2.18126e-13
2.73608e-13
2.43289e-13
2.72918e-13
2.34628e-13
2.03327e-13
2.18161e-13
6.17268e-14
3.73747e-13
3.20448e-13
1.87902e-13
1.40617e-13
8.1098e-15
2.26712e-13
1.64039e-13
3.04465e-13
5.61906e-13
3.9188e-13
3.67755e-13
4.37877e-13
5.55095e-13
8.05859e-13
1.05498e-12
1.14834e-12
1.01702e-12
1.14103e-12
1.05511e-12
1.08665e-12
1.14946e-12
1.08687e-12
1.02418e-12
1.07871e-12
1.07009e-12
8.84138e-13
7.81659e-13
5.86276e-13
6.80463e-13
7.58318e-13
7.66207e-13
9.77387e-13
1.10207e-12
1.05423e-12
7.04518e-13
7.97455e-13
8.59982e-13
9.30592e-13
1.05523e-12
7.82237e-13
9.29926e-13
8.83317e-13
7.89585e-13
6.17309e-13
6.09771e-13
5.70744e-13
4.22337e-13
3.75724e-13
6.64424e-13
8.66988e-13
6.64918e-13
5.1584e-13
3.75387e-13
4.77053e-13
6.01825e-13
5.70613e-13
6.02529e-13
7.81644e-13
8.11941e-13
7.43515e-13
7.89445e-13
7.03408e-13
5.6307e-13
4.84994e-13
4.76938e-13
4.76423e-13
5.31746e-13
6.25534e-13
6.80047e-13
7.27024e-13
7.73902e-13
7.03716e-13
7.89661e-13
7.11622e-13
6.95031e-13
6.02696e-13
7.11015e-13
8.05157e-13
8.44665e-13
8.05016e-13
8.44392e-13
)
;

boundaryField
{
    sides
    {
        type            calculated;
        value           nonuniform List<scalar> 2(8.44392e-13 2.59264e-18);
    }
    empty
    {
        type            empty;
    }
}


// ************************************************************************* //
