/*--------------------------------*- C++ -*----------------------------------*\
  =========                 |
  \\      /  F ield         | OpenFOAM: The Open Source CFD Toolbox
   \\    /   O peration     | Website:  https://openfoam.org
    \\  /    A nd           | Version:  13
     \\/     M anipulation  |
\*---------------------------------------------------------------------------*/
FoamFile
{
    format      ascii;
    class       volScalarField;
    location    "0.005";
    object      p;
}
// * * * * * * * * * * * * * * * * * * * * * * * * * * * * * * * * * * * * * //

dimensions      [1 -1 -2 0 0 0 0];

internalField   nonuniform List<scalar> 
1000
(
100000
100000
100000
100000
100000
100000
100000
100000
100000
100000
100000
100000
100000
100000
100000
100000
100000
100000
100000
100000
100000
100000
100000
100000
100000
100000
100000
100000
100000
100000
100000
100000
100000
100000
100000
100000
100000
100000
100000
100000
100000
100000
100000
100000
100000
100000
100000
100000
100000
100000
100000
100000
100000
100000
100000
100000
100000
100000
100000
100000
100000
100000
100000
100000
100000
100000
100000
100000
100000
100000
100000
100000
100000
100000
100000
100000
100000
100000
100000
100000
100000
100000
100000
100000
100000
100000
100000
100000
100000
100000
100000
100000
100000
100000
100000
100000
100000
100000
100000
100000
100000
100000
100000
100000
100000
100000
100000
100000
100000
100000
100000
100000
100000
100000
100000
100000
100000
100000
100000
100000
100000
100000
100000
100000
100000
100000
100000
100000
100000
100000
100000
100000
100000
100000
100000
100000
100000
100000
100000
100000
100000
100000
100000
100000
100000
100000
100000
100000
100000
100000
100000
100000
100000
100000
100000
100000
100000
100000
100000
100000
100000
100000
100000
100000
100000
100000
100000
100000
100000
100000
100000
100000
100000
100000
100000
100000
100000
100000
100000
100000
100000
100000
100000
100000
100000
100000
100000
100000
100000
100000
100000
100000
100000
100000
100000
100000
100000
100000
100000
100000
100000
100000
100000
100000
100000
100000
100000
100000
100000
100000
100000
100000
100000
100000
100000
100000
100000
100000
100000
100000
100000
100000
100000
100000
100000
100000
100000
100000
100000
100000
100000
100000
100000
100000
100000
100000
100000
100000
100000
100000
100000
100000
100000
100000
100000
100000
100000
100000
100000
100000
100000
100000
100000
100000
100000
100000
100000
100000
100000
100000
100000
100000
100000
100000
100000
100000
100000
100000
100000
100000
100000
100000
100000
100000
100000
100000
100000
100000
100000
100000
100000
100000
100000
100000
100000
100000
99999.9
99999.9
99999.8
99999.6
99999.2
99998.6
99997.6
99995.8
99992.9
99988.1
99980.5
99968.4
99950
99922.7
99883.2
99828
99753.6
99656.4
99533.6
99383
99203.2
98993.7
98754.7
98487
98191.9
97871
97526.1
97159.4
96772.6
96368
95947.2
95512.2
95064.6
94605.9
94137.6
93660.8
93176.8
92686.6
92191
91690.9
91187
90680.1
90170.6
89659
89146
88631.7
88116.7
87601.2
87085.6
86570
86054.8
85540.1
85026.1
84513
84001
83490.1
82980.5
82472.4
81965.8
81460.7
80957.4
80455.8
79956.1
79458.2
78962.4
78468.5
77976.6
77486.9
76999.2
76513.8
76030.6
75549.6
75070.8
74594.4
74120.3
73648.5
73179.2
72712.2
72247.6
71785.6
71326
70868.9
70414.3
69962.4
69513
69066.3
68622.3
68181.1
67742.6
67307
66874.4
66444.9
66018.5
65595.4
65175.7
64759.7
64347.6
63939.6
63536.2
63137.8
62744.9
62358.2
61978.6
61607.2
61245.3
60894.6
60557
60234.8
59930.6
59647.3
59387.6
59154
58948.7
58772.7
58626.2
58507.8
58415.4
58345.9
58295.5
58260.4
58237.1
58222.4
58213.6
58208.6
58205.9
58204.2
58202.2
58199.3
58194.5
58186.4
58172.6
58149.2
58110.7
58050
57958.9
57830.7
57662.2
57454.3
57211.6
56940.4
56646.9
56336.4
56013.4
55681.3
55342.7
54999.4
54653
54304.6
53955.1
53605.2
53255.3
52905.9
52557.2
52209.6
51863.2
51518.2
51174.7
50832.8
50492.7
50154.3
49817.7
49483.1
49150.3
48819.5
48490.6
48163.7
47838.8
47515.9
47195
46876.1
46559.2
46244.3
45931.5
45620.6
45311.7
45004.8
44699.9
44397
44096
43797
43500
43204.9
42911.7
42620.5
42331.1
42043.7
41758.2
41474.6
41192.8
40912.9
40634.9
40358.7
40084.4
39811.9
39541.2
39272.4
39005.4
38740.2
38476.8
38215.2
37955.4
37697.5
37441.4
37187.2
36934.8
36684.3
36435.7
36189
35944.4
35701.9
35461.4
35223.4
34987.4
34754.3
34522.5
34292.2
34064.2
33839.3
33618.4
33402.1
33191.1
32986.5
32789.8
32602.8
32428.2
32269.1
32128.6
32009.4
31912.9
31838.5
31784
31746.3
31722
31707.7
31700.3
31697.1
31696
31695.7
31695.6
31695.5
31695.4
31695.2
31695
31694.8
31694.8
31695.3
31695.7
31696
31696.2
31696.3
31696.5
31696.6
31696.6
31696.7
31696.7
31696.7
31696.7
31696.7
31696.6
31696.6
31696.5
31696.5
31696.4
31696.4
31696.3
31696.3
31696.2
31696.2
31696.1
31696.1
31696
31696
31696
31695.9
31695.9
31695.8
31695.8
31695.8
31695.7
31695.7
31695.7
31695.6
31695.6
31695.6
31695.6
31695.5
31695.5
31695.5
31695.4
31695.4
31695.4
31695.3
31695.3
31695.3
31695.3
31695.2
31695.2
31695.2
31695.2
31695.1
31695.1
31695.1
31695.1
31695
31695
31695
31695
31694.9
31694.9
31694.9
31694.9
31694.8
31694.8
31694.8
31694.8
31694.7
31694.7
31694.7
31694.7
31694.6
31694.6
31694.6
31694.6
31694.6
31694.5
31694.5
31694.5
31694.5
31694.4
31694.4
31694.4
31694.4
31694.4
31694.3
31694.3
31694.3
31694.3
31694.3
31694.2
31694.2
31694.2
31694.2
31694.2
31694.1
31694.1
31694.1
31694.1
31694.1
31694.1
31694
31694
31694
31694
31694
31693.9
31693.9
31693.9
31693.9
31693.9
31693.9
31693.9
31693.9
31693.9
31694
31694.2
31694.4
31694.7
31695.1
31695.6
31696.2
31697
31697.7
31698.3
31698.8
31699
31698.9
31698.4
31697.6
31696.6
31695.6
31694.8
31694.2
31693.8
31693.6
31693.6
31693.5
31693.5
31693.5
31693.5
31693.5
31693.5
31693.4
31693.4
31693.5
31693.4
31693.4
31693.4
31693.4
31693.4
31693.4
31693.3
31693.3
31693.3
31693.3
31693.3
31693.3
31693.3
31693.2
31693.2
31693.2
31693.2
31693.2
31693.2
31693.2
31693.1
31693.1
31693.1
31693.1
31693.1
31693.1
31693
31693
31693
31693
31693
31693
31692.9
31692.9
31692.9
31692.9
31692.9
31692.9
31692.8
31692.8
31692.8
31692.8
31692.8
31692.7
31692.7
31692.7
31692.7
31692.6
31692.6
31692.6
31692.6
31692.6
31692.5
31692.5
31692.5
31692.5
31692.4
31692.4
31692.4
31692.4
31692.3
31692.3
31692.3
31692.2
31692.2
31692.2
31692.2
31692.1
31692.1
31692.1
31692
31692
31692
31691.9
31691.9
31691.9
31691.8
31691.8
31691.7
31691.7
31691.7
31691.6
31691.6
31691.5
31691.5
31691.4
31691.4
31691.3
31691.3
31691.2
31691.3
31690.9
31691.2
31690.5
31691.2
31689.8
31691.5
31688.5
31692.2
31685.1
31692.7
31675.2
31689.7
31645.5
31668.1
31552.2
31550
31212.2
31050
29909.6
28997.1
25458.1
20952.1
13683.5
10679.5
10134
10045.4
10031.2
10028.9
10028.6
10028.5
10028.5
10028.5
10028.5
10028.5
10028.5
10028.5
10028.5
10028.5
10028.5
10028.5
10028.5
10028.5
10028.5
10028.5
10028.5
10028.5
10028.5
10028.5
10028.5
10028.5
10028.5
10028.5
10028.5
10028.5
10028.5
10028.5
10028.5
10028.5
10028.5
10028.5
10028.5
10028.5
10028.5
10028.5
10028.5
10028.5
10028.5
10028.5
10028.5
10028.5
10028.5
10028.5
10028.5
10028.5
10028.5
10028.5
10028.5
10028.5
10028.5
10028.5
10028.5
10028.5
10028.5
10028.5
10028.5
10028.5
10028.5
10028.5
10028.5
10028.5
10028.5
10028.5
10028.5
10028.5
10028.5
10028.5
10028.5
10028.5
10028.5
10028.5
10028.5
10028.5
10028.5
10028.5
10028.5
10028.5
10028.5
10028.5
10028.5
10028.5
10028.5
10028.5
10028.5
10028.5
10028.5
10028.5
10028.5
10028.5
10028.5
10028.5
10028.5
10028.5
10028.5
10028.5
10028.5
10028.5
10028.5
10028.5
10028.5
10028.5
10028.5
10028.5
10028.5
10028.5
10028.5
10028.5
10028.5
10028.5
10028.5
10028.5
10028.5
10028.5
10028.5
10028.5
10028.5
10028.5
10028.5
10028.5
10028.5
10028.5
10028.5
10028.5
10028.5
10028.5
10028.5
10028.5
10028.5
10028.5
10028.5
10028.5
10028.5
10028.5
10028.5
10028.5
10028.5
10028.5
10028.5
10028.5
10028.5
10028.5
10028.5
10028.5
10028.5
10028.5
10028.5
10028.5
10028.5
10028.5
10028.5
10028.5
10028.5
10028.5
10028.5
10028.5
10028.5
10028.5
10028.5
10028.5
10028.5
10028.5
10028.5
10028.5
10028.5
10028.5
10028.5
10028.5
10028.5
10028.5
10028.5
10028.5
10028.5
10028.5
10028.5
10028.5
10028.5
10028.5
10028.5
10028.5
10028.5
10028.5
10028.5
10028.5
10028.5
10028.5
10028.5
10028.5
10028.5
10028.5
10028.5
10028.5
10028.5
10028.5
10028.5
10028.5
10028.5
10028.5
10028.5
10028.5
10028.5
)
;

boundaryField
{
    sides
    {
        type            zeroGradient;
    }
    empty
    {
        type            empty;
    }
}


// ************************************************************************* //
