/*--------------------------------*- C++ -*----------------------------------*\
  =========                 |
  \\      /  F ield         | OpenFOAM: The Open Source CFD Toolbox
   \\    /   O peration     | Website:  https://openfoam.org
    \\  /    A nd           | Version:  13
     \\/     M anipulation  |
\*---------------------------------------------------------------------------*/
FoamFile
{
    format      ascii;
    class       surfaceScalarField;
    location    "0.005";
    object      phi;
}
// * * * * * * * * * * * * * * * * * * * * * * * * * * * * * * * * * * * * * //

dimensions      [1 0 -1 0 0 0 0];

internalField   nonuniform List<scalar> 
999
(
0
0
4.54747e-13
2.27374e-13
0
0
-3.41061e-13
-3.41061e-13
0
2.27374e-13
1.13687e-13
1.13687e-13
2.27374e-13
-1.13687e-13
-2.27374e-13
-2.27374e-13
2.27374e-13
6.82121e-13
6.82121e-13
4.54747e-13
4.54747e-13
0
0
0
1.13687e-13
5.68434e-13
6.82121e-13
6.82121e-13
6.82121e-13
5.68434e-13
1.13687e-13
1.13687e-13
2.27374e-13
-1.13687e-13
-3.41061e-13
-9.09495e-13
0
-6.82121e-13
-1.13687e-12
-1.25056e-12
-2.27374e-13
5.68434e-13
6.82121e-13
4.54747e-13
-6.82121e-13
-4.54747e-13
-6.82121e-13
-1.36424e-12
-1.02318e-12
-1.13687e-13
-1.13687e-13
3.41061e-13
1.13687e-13
-3.41061e-13
-1.13687e-13
-9.09495e-13
-1.36424e-12
-1.81899e-12
-1.25056e-12
1.13687e-13
-5.68434e-13
-6.82121e-13
-1.36424e-12
-5.68434e-13
-7.95808e-13
-5.68434e-13
0
1.13687e-13
4.54747e-13
2.27374e-13
3.41061e-13
-5.68434e-13
-1.47793e-12
-3.41061e-13
7.95808e-13
1.81899e-12
1.7053e-12
1.7053e-12
9.09495e-13
3.41061e-13
-3.41061e-13
-3.41061e-13
2.27374e-13
1.02318e-12
1.25056e-12
7.95808e-13
1.59162e-12
3.41061e-13
5.68434e-13
4.54747e-13
5.68434e-13
1.7053e-12
1.7053e-12
1.81899e-12
1.36424e-12
1.36424e-12
7.95808e-13
7.95808e-13
1.25056e-12
1.81899e-12
1.81899e-12
7.95808e-13
1.36424e-12
6.82121e-13
1.13687e-13
-5.68434e-13
2.27374e-13
0
1.13687e-12
6.82121e-13
1.36424e-12
1.02318e-12
-2.27374e-13
-1.02318e-12
-2.27374e-13
-5.68434e-13
-9.09495e-13
-9.09495e-13
-9.09495e-13
-1.13687e-12
-1.02318e-12
-9.09495e-13
-5.68434e-13
-9.09495e-13
-7.95808e-13
-4.54747e-13
-3.41061e-13
1.13687e-13
2.27374e-13
2.27374e-13
0
-4.54747e-13
-6.82121e-13
-2.27374e-13
-1.13687e-13
2.27374e-13
2.27374e-13
0
1.13687e-13
4.54747e-13
4.54747e-13
4.54747e-13
4.54747e-13
4.54747e-13
4.54747e-13
5.68434e-13
5.68434e-13
5.68434e-13
5.68434e-13
5.68434e-13
4.54747e-13
3.41061e-13
4.54747e-13
4.54747e-13
4.54747e-13
3.41061e-13
3.41061e-13
-1.13687e-13
-1.13687e-13
-2.27374e-13
0
0
0
1.13687e-13
4.54747e-13
4.54747e-13
4.54747e-13
4.54747e-13
4.54747e-13
4.54747e-13
5.68434e-13
5.68434e-13
5.68434e-13
5.68434e-13
5.68434e-13
4.54747e-13
3.41061e-13
4.54747e-13
4.54747e-13
1.13687e-13
0
2.27374e-13
1.13687e-13
-3.41061e-13
-3.41061e-13
0
0
0
0
-1.13687e-13
-1.13687e-13
0
-5.68434e-13
-3.41061e-13
-5.68434e-13
-1.25056e-12
-1.36424e-12
-1.25056e-12
-1.13687e-12
-5.68434e-13
-2.27374e-13
-2.27374e-13
-3.41061e-13
-2.27374e-13
-6.82121e-13
-4.54747e-13
-3.41061e-13
-3.41061e-13
-4.54747e-13
-6.82121e-13
-6.82121e-13
-1.02318e-12
-1.25056e-12
-1.13687e-12
-1.13687e-12
-1.02318e-12
-9.09495e-13
-1.13687e-12
-1.13687e-12
-1.7053e-12
-1.81899e-12
-2.16005e-12
-1.7053e-12
-1.7053e-12
-1.47793e-12
-1.13687e-12
-7.95808e-13
-6.82121e-13
-1.13687e-12
-7.95808e-13
-5.68434e-13
-6.82121e-13
-9.09495e-13
-3.41061e-13
-3.41061e-13
-1.13687e-13
2.27374e-13
7.95808e-13
-1.13687e-13
3.41061e-13
0
-1.13687e-13
-9.09495e-13
-7.95808e-13
-9.09495e-13
-9.09495e-13
-7.95808e-13
-3.41061e-13
-2.27374e-13
7.95808e-13
1.13687e-12
1.13687e-12
1.02318e-12
5.68434e-13
1.02318e-12
5.68434e-13
1.02318e-12
6.82121e-13
2.04636e-12
3.97904e-12
7.95808e-12
1.58025e-11
3.3765e-11
7.49196e-11
1.62117e-10
3.53907e-10
7.67955e-10
1.66267e-09
3.57761e-09
7.65499e-09
1.62765e-08
3.43878e-08
7.21487e-08
1.50309e-07
3.10861e-07
6.38141e-07
1.30002e-06
2.62781e-06
5.26943e-06
1.04802e-05
2.06692e-05
4.04129e-05
7.83166e-05
0.000150387
0.000286062
0.00053885
0.00100481
0.00185414
0.00338421
0.00610698
0.0108897
0.0191764
0.0333253
0.0571064
0.096401
0.160127
0.261354
0.418462
0.656031
1.00497
1.50144
2.1844
3.09219
4.25897
5.71185
7.46927
9.54047
11.9261
14.6191
17.6067
20.8715
24.3929
28.1489
32.1168
36.2738
40.5981
45.0689
49.6669
54.3741
59.1743
64.0527
68.9959
73.992
79.0302
84.1012
89.1963
94.3081
99.4299
104.556
109.68
114.799
119.908
125.003
130.081
135.139
140.175
145.185
150.17
155.125
160.05
164.944
169.805
174.632
179.423
184.179
188.898
193.579
198.222
202.827
207.392
211.918
216.404
220.849
225.254
229.618
233.941
238.222
242.462
246.66
250.817
254.931
259.003
263.034
267.022
270.968
274.871
278.732
282.55
286.326
290.058
293.748
297.395
300.998
304.558
308.074
311.545
314.972
318.354
321.69
324.979
328.22
331.412
334.553
337.642
340.675
343.649
346.561
349.406
352.176
354.865
357.463
359.958
362.336
364.581
366.676
368.602
370.343
371.884
373.217
374.338
375.253
375.976
376.528
376.934
377.22
377.414
377.538
377.614
377.657
377.678
377.692
377.704
377.721
377.747
377.791
377.866
377.994
378.207
378.55
379.079
379.847
380.89
382.211
383.784
385.564
387.5
389.549
391.672
393.841
396.034
398.234
400.43
402.611
404.771
406.906
409.01
411.082
413.118
415.118
417.08
419.003
420.886
422.73
424.534
426.297
428.02
429.703
431.346
432.948
434.511
436.035
437.519
438.964
440.371
441.739
443.07
444.362
445.618
446.837
448.019
449.165
450.276
451.351
452.391
453.397
454.368
455.306
456.21
457.081
457.919
458.726
459.5
460.243
460.955
461.635
462.286
462.906
463.497
464.058
464.591
465.094
465.57
466.017
466.437
466.829
467.195
467.534
467.847
468.133
468.395
468.63
468.841
469.028
469.19
469.329
469.443
469.535
469.605
469.652
469.677
469.681
469.664
469.627
469.57
469.495
469.403
469.296
469.175
469.044
468.907
468.767
468.632
468.507
468.398
468.308
468.239
468.188
468.154
468.132
468.12
468.113
468.111
468.109
468.109
468.109
468.108
468.108
468.108
468.107
468.107
468.106
468.106
468.105
468.105
468.104
468.104
468.103
468.103
468.103
468.102
468.102
468.102
468.102
468.101
468.101
468.101
468.101
468.101
468.1
468.1
468.1
468.1
468.099
468.099
468.099
468.099
468.098
468.098
468.098
468.098
468.097
468.097
468.097
468.097
468.096
468.096
468.096
468.096
468.095
468.095
468.094
468.094
468.094
468.093
468.093
468.092
468.092
468.091
468.091
468.09
468.089
468.089
468.088
468.088
468.087
468.087
468.086
468.085
468.085
468.084
468.083
468.083
468.082
468.081
468.081
468.08
468.079
468.078
468.078
468.077
468.076
468.075
468.075
468.074
468.073
468.072
468.071
468.07
468.069
468.068
468.068
468.067
468.066
468.065
468.064
468.063
468.062
468.061
468.06
468.059
468.058
468.056
468.055
468.054
468.053
468.052
468.05
468.049
468.047
468.045
468.042
468.038
468.032
468.024
468.011
467.993
467.964
467.921
467.857
467.761
467.622
467.419
467.129
466.72
466.149
465.364
464.302
462.887
461.032
458.64
455.611
451.845
447.251
441.76
435.333
427.975
419.741
410.748
401.172
391.245
381.245
371.476
362.249
353.857
346.538
340.449
335.637
332.031
329.463
327.717
326.575
325.852
325.409
325.145
324.992
324.907
324.862
324.839
324.829
324.825
324.824
324.824
324.825
324.826
324.83
324.833
324.837
324.839
324.841
324.841
324.841
324.841
324.84
324.84
324.84
324.839
324.838
324.838
324.837
324.836
324.835
324.834
324.833
324.832
324.832
324.831
324.83
324.829
324.829
324.828
324.827
324.826
324.826
324.825
324.824
324.824
324.823
324.823
324.822
324.821
324.821
324.82
324.82
324.819
324.819
324.818
324.817
324.817
324.816
324.816
324.815
324.815
324.814
324.814
324.813
324.812
324.812
324.811
324.811
324.81
324.809
324.809
324.808
324.808
324.807
324.807
324.806
324.805
324.805
324.804
324.803
324.803
324.802
324.801
324.801
324.8
324.799
324.799
324.798
324.797
324.796
324.795
324.795
324.794
324.793
324.792
324.791
324.79
324.79
324.788
324.787
324.785
324.784
324.78
324.781
324.774
324.778
324.763
324.769
324.728
324.724
324.604
324.545
324.176
323.812
322.599
320.897
316.172
309.164
291.56
262.521
204.784
97.862
20.097
3.40269
0.550582
0.0881203
0.0140596
0.00224121
0.000357147
5.69068e-05
9.0671e-06
1.44468e-06
2.30183e-07
3.66756e-08
5.84359e-09
9.3118e-10
1.48404e-10
2.36469e-11
3.90799e-12
6.39488e-13
8.52651e-14
5.68434e-14
-2.84217e-14
2.84217e-14
1.42109e-14
9.9476e-14
8.52651e-14
1.13687e-13
7.10543e-14
9.9476e-14
5.68434e-14
1.84741e-13
2.27374e-13
2.13163e-13
2.13163e-13
2.55795e-13
3.2685e-13
3.83693e-13
4.12115e-13
5.11591e-13
5.25802e-13
3.97904e-13
4.12115e-13
4.9738e-13
4.9738e-13
4.26326e-13
3.41061e-13
1.98952e-13
1.7053e-13
1.42109e-13
1.27898e-13
1.13687e-13
9.9476e-14
8.52651e-14
1.42109e-13
1.13687e-13
1.7053e-13
1.27898e-13
1.42109e-13
1.56319e-13
1.27898e-13
1.27898e-13
1.27898e-13
2.27374e-13
3.2685e-13
4.54747e-13
4.40536e-13
4.40536e-13
4.26326e-13
4.12115e-13
3.55271e-13
3.2685e-13
3.41061e-13
3.55271e-13
2.70006e-13
2.70006e-13
2.13163e-13
2.13163e-13
1.98952e-13
2.55795e-13
2.55795e-13
2.41585e-13
7.10543e-14
1.27898e-13
9.9476e-14
4.26326e-14
2.84217e-14
-7.10543e-14
-1.27898e-13
-1.13687e-13
5.68434e-14
4.26326e-14
4.26326e-14
5.68434e-14
7.10543e-14
-7.10543e-14
-8.52651e-14
-1.42109e-13
-5.68434e-14
-1.13687e-13
-1.56319e-13
-2.13163e-13
-9.9476e-14
-9.9476e-14
-8.52651e-14
-8.52651e-14
-8.52651e-14
-1.27898e-13
-5.68434e-14
-1.13687e-13
-1.42109e-13
-2.27374e-13
-3.2685e-13
-2.84217e-13
-2.70006e-13
-2.27374e-13
-2.55795e-13
-2.70006e-13
-1.27898e-13
2.84217e-14
1.13687e-13
1.27898e-13
1.27898e-13
1.13687e-13
9.9476e-14
8.52651e-14
9.9476e-14
-5.68434e-14
-9.9476e-14
-1.7053e-13
-9.9476e-14
-2.84217e-14
8.52651e-14
7.10543e-14
9.9476e-14
1.98952e-13
2.55795e-13
1.7053e-13
2.13163e-13
2.13163e-13
3.41061e-13
4.40536e-13
5.11591e-13
4.9738e-13
5.40012e-13
5.11591e-13
4.9738e-13
5.40012e-13
5.11591e-13
5.11591e-13
4.83169e-13
4.9738e-13
4.54747e-13
3.83693e-13
3.41061e-13
2.55795e-13
3.55271e-13
3.41061e-13
3.83693e-13
4.83169e-13
4.9738e-13
4.12115e-13
3.41061e-13
4.26326e-13
4.12115e-13
4.83169e-13
4.40536e-13
3.97904e-13
4.12115e-13
3.55271e-13
3.2685e-13
2.41585e-13
3.12639e-13
2.27374e-13
1.98952e-13
2.55795e-13
3.55271e-13
3.69482e-13
2.70006e-13
2.27374e-13
1.84741e-13
2.70006e-13
2.55795e-13
2.70006e-13
3.2685e-13
3.69482e-13
3.55271e-13
3.55271e-13
3.55271e-13
2.98428e-13
2.41585e-13
2.13163e-13
2.13163e-13
2.27374e-13
2.55795e-13
3.2685e-13
2.98428e-13
3.55271e-13
3.12639e-13
3.41061e-13
3.2685e-13
3.2685e-13
2.98428e-13
2.84217e-13
3.69482e-13
3.97904e-13
3.83693e-13
3.83693e-13
)
;

boundaryField
{
    sides
    {
        type            calculated;
        value           nonuniform List<scalar> 2(3.97904e-13 0);
    }
    empty
    {
        type            empty;
    }
}


// ************************************************************************* //
