/*--------------------------------*- C++ -*----------------------------------*\
  =========                 |
  \\      /  F ield         | OpenFOAM: The Open Source CFD Toolbox
   \\    /   O peration     | Website:  https://openfoam.org
    \\  /    A nd           | Version:  13
     \\/     M anipulation  |
\*---------------------------------------------------------------------------*/
FoamFile
{
    format      ascii;
    class       volScalarField;
    location    "0.005";
    object      rho;
}
// * * * * * * * * * * * * * * * * * * * * * * * * * * * * * * * * * * * * * //

dimensions      [1 -3 0 0 0 0 0];

internalField   nonuniform List<scalar> 
1000
(
0.995488
0.995488
0.995488
0.995488
0.995488
0.995488
0.995488
0.995488
0.995488
0.995488
0.995488
0.995488
0.995488
0.995488
0.995488
0.995488
0.995488
0.995488
0.995488
0.995488
0.995488
0.995488
0.995488
0.995488
0.995488
0.995488
0.995488
0.995488
0.995488
0.995488
0.995488
0.995488
0.995488
0.995488
0.995488
0.995488
0.995488
0.995488
0.995488
0.995488
0.995488
0.995488
0.995488
0.995488
0.995488
0.995488
0.995488
0.995488
0.995488
0.995488
0.995488
0.995488
0.995488
0.995488
0.995488
0.995488
0.995488
0.995488
0.995488
0.995488
0.995488
0.995488
0.995488
0.995488
0.995488
0.995488
0.995488
0.995488
0.995488
0.995488
0.995488
0.995488
0.995488
0.995488
0.995488
0.995488
0.995488
0.995488
0.995488
0.995488
0.995488
0.995488
0.995488
0.995488
0.995488
0.995488
0.995488
0.995488
0.995488
0.995488
0.995488
0.995488
0.995488
0.995488
0.995488
0.995488
0.995488
0.995488
0.995488
0.995488
0.995488
0.995488
0.995488
0.995488
0.995488
0.995488
0.995488
0.995488
0.995488
0.995488
0.995488
0.995488
0.995488
0.995488
0.995488
0.995488
0.995488
0.995488
0.995488
0.995488
0.995488
0.995488
0.995488
0.995488
0.995488
0.995488
0.995488
0.995488
0.995488
0.995488
0.995488
0.995488
0.995488
0.995488
0.995488
0.995488
0.995488
0.995488
0.995488
0.995488
0.995488
0.995488
0.995488
0.995488
0.995488
0.995488
0.995488
0.995488
0.995488
0.995488
0.995488
0.995488
0.995488
0.995488
0.995488
0.995488
0.995488
0.995488
0.995488
0.995488
0.995488
0.995488
0.995488
0.995488
0.995488
0.995488
0.995488
0.995488
0.995488
0.995488
0.995488
0.995488
0.995488
0.995488
0.995488
0.995488
0.995488
0.995488
0.995488
0.995488
0.995488
0.995488
0.995488
0.995488
0.995488
0.995488
0.995488
0.995488
0.995488
0.995488
0.995488
0.995488
0.995488
0.995488
0.995488
0.995488
0.995488
0.995488
0.995488
0.995488
0.995488
0.995488
0.995488
0.995488
0.995488
0.995488
0.995488
0.995488
0.995488
0.995488
0.995488
0.995488
0.995488
0.995488
0.995488
0.995488
0.995488
0.995488
0.995488
0.995488
0.995488
0.995488
0.995488
0.995488
0.995488
0.995488
0.995488
0.995488
0.995488
0.995488
0.995488
0.995488
0.995488
0.995488
0.995488
0.995488
0.995488
0.995488
0.995488
0.995488
0.995488
0.995488
0.995488
0.995488
0.995488
0.995488
0.995488
0.995488
0.995488
0.995488
0.995488
0.995488
0.995488
0.995488
0.995488
0.995488
0.995488
0.995488
0.995488
0.995488
0.995488
0.995488
0.995488
0.995488
0.995488
0.995488
0.995488
0.995488
0.995488
0.995488
0.995488
0.995488
0.995488
0.995488
0.995488
0.995488
0.995488
0.995488
0.995488
0.995488
0.995488
0.995488
0.995488
0.995488
0.995487
0.995487
0.995487
0.995487
0.995486
0.995485
0.995482
0.995478
0.99547
0.995458
0.995437
0.995403
0.995348
0.995262
0.99513
0.994934
0.994652
0.994257
0.993724
0.993028
0.992149
0.99107
0.989781
0.988279
0.986564
0.984641
0.98252
0.980211
0.977728
0.975084
0.972294
0.96937
0.966328
0.963178
0.959932
0.956602
0.953198
0.949727
0.946198
0.942619
0.938996
0.935335
0.93164
0.927917
0.924169
0.920401
0.916615
0.912815
0.909003
0.905181
0.901352
0.897517
0.893679
0.889838
0.885996
0.882155
0.878315
0.874478
0.870644
0.866814
0.862989
0.859169
0.855356
0.85155
0.847751
0.843961
0.840178
0.836405
0.83264
0.828885
0.82514
0.821405
0.817681
0.813967
0.810264
0.806573
0.802894
0.799226
0.79557
0.791926
0.788296
0.784677
0.781072
0.777481
0.773903
0.770339
0.766789
0.763254
0.759734
0.75623
0.752742
0.74927
0.745816
0.74238
0.738964
0.735567
0.732193
0.728842
0.725516
0.722218
0.718951
0.715719
0.712526
0.709379
0.706283
0.70325
0.700289
0.697415
0.694645
0.691996
0.689493
0.687157
0.685014
0.683084
0.681386
0.679929
0.678714
0.677733
0.676967
0.676389
0.675971
0.67568
0.675486
0.675363
0.67529
0.675249
0.675226
0.675207
0.675184
0.67515
0.675095
0.675001
0.67484
0.674569
0.674123
0.673418
0.672361
0.670875
0.668919
0.666508
0.663693
0.660546
0.657141
0.65354
0.649793
0.64594
0.642011
0.638029
0.634011
0.62997
0.625915
0.621856
0.617797
0.613743
0.609698
0.605665
0.601647
0.597645
0.59366
0.589694
0.585748
0.581823
0.577919
0.574036
0.570176
0.566338
0.562523
0.558731
0.554962
0.551216
0.547493
0.543794
0.540118
0.536465
0.532835
0.529229
0.525646
0.522085
0.518548
0.515034
0.511543
0.508074
0.504628
0.501205
0.497804
0.494426
0.491069
0.487735
0.484423
0.481132
0.477864
0.474617
0.471392
0.468188
0.465005
0.461844
0.458704
0.455585
0.452488
0.449411
0.446356
0.443321
0.440308
0.437316
0.434345
0.431396
0.428468
0.425562
0.422678
0.419817
0.416979
0.414165
0.411376
0.408615
0.405877
0.403173
0.400484
0.397812
0.395167
0.392559
0.389996
0.387486
0.385039
0.382665
0.380383
0.378214
0.376189
0.374343
0.372713
0.371331
0.370211
0.369348
0.368716
0.368278
0.367996
0.36783
0.367745
0.367708
0.367695
0.367691
0.36769
0.367689
0.367687
0.367686
0.367683
0.367681
0.36768
0.367685
0.367688
0.36769
0.367691
0.367693
0.367694
0.367694
0.367695
0.367695
0.367695
0.367695
0.367695
0.367695
0.367694
0.367694
0.367693
0.367693
0.367692
0.367692
0.367691
0.367691
0.36769
0.36769
0.367689
0.367689
0.367688
0.367688
0.367687
0.367687
0.367687
0.367686
0.367686
0.367685
0.367685
0.367685
0.367684
0.367684
0.367684
0.367683
0.367683
0.367682
0.367682
0.367681
0.367681
0.36768
0.36768
0.367679
0.367679
0.367678
0.367678
0.367677
0.367677
0.367676
0.367676
0.367675
0.367675
0.367674
0.367674
0.367673
0.367672
0.367672
0.367671
0.367671
0.36767
0.367669
0.367669
0.367668
0.367668
0.367667
0.367666
0.367666
0.367665
0.367664
0.367664
0.367663
0.367662
0.367662
0.367661
0.36766
0.36766
0.367659
0.367658
0.367657
0.367657
0.367656
0.367655
0.367654
0.367654
0.367653
0.367652
0.367651
0.36765
0.367649
0.367649
0.367648
0.367647
0.367646
0.367644
0.367643
0.367641
0.367638
0.367634
0.367629
0.367621
0.367608
0.367589
0.367561
0.367518
0.367455
0.367362
0.367226
0.367031
0.366755
0.366367
0.365832
0.365103
0.364126
0.362836
0.361163
0.359027
0.356352
0.353062
0.349094
0.344407
0.338987
0.332858
0.326089
0.318795
0.311136
0.303312
0.295551
0.288094
0.281178
0.275009
0.269745
0.265465
0.262163
0.259745
0.258059
0.256933
0.256207
0.255755
0.255481
0.25532
0.255229
0.255179
0.255154
0.255142
0.255137
0.255135
0.255135
0.255135
0.255137
0.255139
0.255141
0.255144
0.255147
0.255148
0.255149
0.255149
0.255149
0.255149
0.255149
0.255149
0.255148
0.255148
0.255147
0.255147
0.255146
0.255146
0.255145
0.255144
0.255144
0.255143
0.255143
0.255142
0.255142
0.255141
0.255141
0.255141
0.25514
0.25514
0.255139
0.255139
0.255139
0.255138
0.255138
0.255137
0.255137
0.255137
0.255137
0.255136
0.255136
0.255136
0.255135
0.255135
0.255135
0.255135
0.255134
0.255134
0.255134
0.255133
0.255133
0.255133
0.255133
0.255132
0.255132
0.255132
0.255132
0.255131
0.255131
0.255131
0.255131
0.25513
0.25513
0.25513
0.255129
0.255129
0.255129
0.255129
0.255128
0.255128
0.255128
0.255128
0.255127
0.255127
0.255127
0.255126
0.255126
0.255126
0.255125
0.255125
0.255125
0.255125
0.255124
0.255124
0.255123
0.255123
0.255122
0.255123
0.255121
0.255122
0.255118
0.255122
0.255114
0.255124
0.255106
0.255128
0.255086
0.255131
0.255029
0.255114
0.254855
0.254989
0.254311
0.254308
0.252325
0.251422
0.244645
0.239533
0.218122
0.190902
0.143096
0.121505
0.117201
0.116477
0.11636
0.116341
0.116338
0.116337
0.116337
0.116337
0.116337
0.116337
0.116337
0.116337
0.116337
0.116337
0.116337
0.116337
0.116337
0.116337
0.116337
0.116337
0.116337
0.116337
0.116337
0.116337
0.116337
0.116337
0.116337
0.116337
0.116337
0.116337
0.116337
0.116337
0.116337
0.116337
0.116337
0.116337
0.116337
0.116337
0.116337
0.116337
0.116337
0.116337
0.116337
0.116337
0.116337
0.116337
0.116337
0.116337
0.116337
0.116337
0.116337
0.116337
0.116337
0.116337
0.116337
0.116337
0.116337
0.116337
0.116337
0.116337
0.116337
0.116337
0.116337
0.116337
0.116337
0.116337
0.116337
0.116337
0.116337
0.116337
0.116337
0.116337
0.116337
0.116337
0.116337
0.116337
0.116337
0.116337
0.116337
0.116337
0.116337
0.116337
0.116337
0.116337
0.116337
0.116337
0.116337
0.116337
0.116337
0.116337
0.116337
0.116337
0.116337
0.116337
0.116337
0.116337
0.116337
0.116337
0.116337
0.116337
0.116337
0.116337
0.116337
0.116337
0.116337
0.116337
0.116337
0.116337
0.116337
0.116337
0.116337
0.116337
0.116337
0.116337
0.116337
0.116337
0.116337
0.116337
0.116337
0.116337
0.116337
0.116337
0.116337
0.116337
0.116337
0.116337
0.116337
0.116337
0.116337
0.116337
0.116337
0.116337
0.116337
0.116337
0.116337
0.116337
0.116337
0.116337
0.116337
0.116337
0.116337
0.116337
0.116337
0.116337
0.116337
0.116337
0.116337
0.116337
0.116337
0.116337
0.116337
0.116337
0.116337
0.116337
0.116337
0.116337
0.116337
0.116337
0.116337
0.116337
0.116337
0.116337
0.116337
0.116337
0.116337
0.116337
0.116337
0.116337
0.116337
0.116337
0.116337
0.116337
0.116337
0.116337
0.116337
0.116337
0.116337
0.116337
0.116337
0.116337
0.116337
0.116337
0.116337
0.116337
0.116337
0.116337
0.116337
0.116337
0.116337
0.116337
0.116337
0.116337
0.116337
0.116337
0.116337
0.116337
0.116337
0.116337
0.116337
0.116337
0.116337
0.116337
0.116337
0.116337
0.116337
)
;

boundaryField
{
    sides
    {
        type            calculated;
        value           nonuniform List<scalar> 2(0.116337 0.995488);
    }
    empty
    {
        type            empty;
    }
}


// ************************************************************************* //
