/*--------------------------------*- C++ -*----------------------------------*\
  =========                 |
  \\      /  F ield         | OpenFOAM: The Open Source CFD Toolbox
   \\    /   O peration     | Website:  https://openfoam.org
    \\  /    A nd           | Version:  13
     \\/     M anipulation  |
\*---------------------------------------------------------------------------*/
FoamFile
{
    format      ascii;
    class       volScalarField;
    location    "0.005";
    object      T;
}
// * * * * * * * * * * * * * * * * * * * * * * * * * * * * * * * * * * * * * //

dimensions      [0 0 0 1 0 0 0];

internalField   nonuniform List<scalar> 
1000
(
348.432
348.432
348.432
348.432
348.432
348.432
348.432
348.432
348.432
348.432
348.432
348.432
348.432
348.432
348.432
348.432
348.432
348.432
348.432
348.432
348.432
348.432
348.432
348.432
348.432
348.432
348.432
348.432
348.432
348.432
348.432
348.432
348.432
348.432
348.432
348.432
348.432
348.432
348.432
348.432
348.432
348.432
348.432
348.432
348.432
348.432
348.432
348.432
348.432
348.432
348.432
348.432
348.432
348.432
348.432
348.432
348.432
348.432
348.432
348.432
348.432
348.432
348.432
348.432
348.432
348.432
348.432
348.432
348.432
348.432
348.432
348.432
348.432
348.432
348.432
348.432
348.432
348.432
348.432
348.432
348.432
348.432
348.432
348.432
348.432
348.432
348.432
348.432
348.432
348.432
348.432
348.432
348.432
348.432
348.432
348.432
348.432
348.432
348.432
348.432
348.432
348.432
348.432
348.432
348.432
348.432
348.432
348.432
348.432
348.432
348.432
348.432
348.432
348.432
348.432
348.432
348.432
348.432
348.432
348.432
348.432
348.432
348.432
348.432
348.432
348.432
348.432
348.432
348.432
348.432
348.432
348.432
348.432
348.432
348.432
348.432
348.432
348.432
348.432
348.432
348.432
348.432
348.432
348.432
348.432
348.432
348.432
348.432
348.432
348.432
348.432
348.432
348.432
348.432
348.432
348.432
348.432
348.432
348.432
348.432
348.432
348.432
348.432
348.432
348.432
348.432
348.432
348.432
348.432
348.432
348.432
348.432
348.432
348.432
348.432
348.432
348.432
348.432
348.432
348.432
348.432
348.432
348.432
348.432
348.432
348.432
348.432
348.432
348.432
348.432
348.432
348.432
348.432
348.432
348.432
348.432
348.432
348.432
348.432
348.432
348.432
348.432
348.432
348.432
348.432
348.432
348.432
348.432
348.432
348.432
348.432
348.432
348.432
348.432
348.432
348.432
348.432
348.432
348.432
348.432
348.432
348.432
348.432
348.432
348.432
348.432
348.432
348.432
348.432
348.432
348.432
348.432
348.432
348.432
348.432
348.432
348.432
348.432
348.432
348.432
348.432
348.432
348.432
348.432
348.432
348.432
348.432
348.432
348.432
348.432
348.432
348.432
348.432
348.432
348.432
348.432
348.432
348.432
348.432
348.432
348.432
348.432
348.432
348.432
348.432
348.432
348.432
348.432
348.432
348.432
348.432
348.432
348.432
348.432
348.432
348.432
348.432
348.432
348.432
348.432
348.432
348.432
348.432
348.432
348.432
348.432
348.432
348.432
348.432
348.432
348.431
348.431
348.43
348.428
348.425
348.42
348.413
348.401
348.383
348.356
348.317
348.263
348.19
348.095
347.974
347.826
347.649
347.442
347.206
346.941
346.648
346.329
345.985
345.618
345.23
344.823
344.399
343.959
343.504
343.037
342.558
342.069
341.57
341.063
340.548
340.027
339.499
338.967
338.429
337.887
337.341
336.791
336.238
335.682
335.124
334.563
334.001
333.436
332.87
332.302
331.732
331.162
330.59
330.017
329.444
328.869
328.294
327.719
327.142
326.566
325.989
325.411
324.834
324.256
323.678
323.1
322.521
321.943
321.365
320.787
320.209
319.631
319.053
318.476
317.899
317.322
316.745
316.169
315.594
315.019
314.445
313.871
313.298
312.726
312.155
311.585
311.016
310.448
309.882
309.318
308.755
308.195
307.637
307.083
306.532
305.985
305.444
304.908
304.38
303.862
303.354
302.859
302.382
301.924
301.49
301.085
300.712
300.375
300.079
299.824
299.611
299.44
299.305
299.204
299.131
299.08
299.046
299.024
299.012
299.005
299
299
299
299
299
299
299
299
299
299
299
299
299
299
299
299
299
299
299
299
299
299
299
299
299
299
299
299
299
299
299
299
299
299
299
299
299
299
299
299
299
299
299
299
299
299
299
299
299
299
299
299
299
299
299
299
299
299
299
299
299
299
299
299
299
299
299
299
299
299
299
299
299
299
299
299
299
299
299
299
299
299
299
299
299
299
299
299
299
299
299
299
299
299
299
299
299
299
299
299
299
299
299
299
299
299
299
299
299
299
299
299
299
299
299
299
299
299
299
299
299
299.002
299.003
299.003
299.004
299.005
299.005
299.005
299.006
299.006
299.006
299.006
299.006
299.006
299.006
299.006
299.006
299.006
299.006
299.006
299.006
299.006
299.006
299.006
299.006
299.005
299.005
299.005
299.005
299.005
299.005
299.005
299.005
299.005
299.005
299.005
299.005
299.005
299.005
299.005
299.005
299.005
299.005
299.006
299.006
299.006
299.006
299.006
299.006
299.006
299.007
299.007
299.007
299.007
299.007
299.008
299.008
299.008
299.008
299.008
299.009
299.009
299.009
299.009
299.01
299.01
299.01
299.01
299.011
299.011
299.011
299.012
299.012
299.012
299.012
299.013
299.013
299.014
299.014
299.014
299.015
299.015
299.015
299.016
299.016
299.017
299.017
299.017
299.018
299.018
299.019
299.019
299.02
299.02
299.021
299.021
299.022
299.023
299.024
299.025
299.026
299.028
299.031
299.035
299.042
299.052
299.067
299.09
299.124
299.176
299.251
299.362
299.52
299.746
300.063
300.502
301.102
301.91
302.984
304.389
306.2
308.501
311.379
314.922
319.214
324.324
330.303
337.167
344.888
353.384
362.502
372.02
381.643
391.021
399.779
407.568
414.127
419.336
423.235
425.998
427.864
429.075
429.833
430.294
430.565
430.719
430.803
430.846
430.866
430.874
430.876
430.876
430.876
430.874
430.87
430.865
430.86
430.856
430.853
430.852
430.851
430.851
430.851
430.851
430.851
430.851
430.852
430.853
430.853
430.854
430.855
430.856
430.856
430.857
430.858
430.859
430.859
430.86
430.86
430.861
430.861
430.862
430.862
430.863
430.863
430.864
430.864
430.864
430.864
430.865
430.865
430.865
430.866
430.866
430.866
430.866
430.866
430.867
430.867
430.867
430.867
430.867
430.867
430.867
430.867
430.868
430.868
430.868
430.868
430.868
430.868
430.868
430.868
430.868
430.868
430.868
430.868
430.868
430.868
430.868
430.868
430.868
430.868
430.868
430.868
430.868
430.868
430.868
430.868
430.868
430.868
430.868
430.868
430.868
430.868
430.868
430.868
430.868
430.868
430.867
430.868
430.867
430.868
430.865
430.868
430.863
430.869
430.858
430.872
430.845
430.874
430.809
430.863
430.698
430.778
430.346
430.321
429.06
428.363
424.062
419.898
404.837
380.69
331.684
304.869
299.918
299.144
299.023
299.004
299.001
299
299
299
299
299
299
299
299
299
299
299
299
299
299
299
299
299
299
299
299
299
299
299
299
299
299
299
299
299
299
299
299
299
299
299
299
299
299
299
299
299
299
299
299
299
299
299
299
299
299
299
299
299
299
299
299
299
299
299
299
299
299
299
299
299
299
299
299
299
299
299
299
299
299
299
299
299
299
299
299
299
299
299
299
299
299
299
299
299
299
299
299
299
299
299
299
299
299
299
299
299
299
299
299
299
299
299
299
299
299
299
299
299
299
299
299
299
299
299
299
299
299
299
299
299
299
299
299
299
299
299
299
299
299
299
299
299
299
299
299
299
299
299
299
299
299
299
299
299
299
299
299
299
299
299
299
299
299
299
299
299
299
299
299
299
299
299
299
299
299
299
299
299
299
299
299
299
299
299
299
299
299
299
299
299
299
299
299
299
299
299
299
299
299
299
299
299
299
299
299
)
;

boundaryField
{
    sides
    {
        type            zeroGradient;
    }
    empty
    {
        type            empty;
    }
}


// ************************************************************************* //
