/*--------------------------------*- C++ -*----------------------------------*\
  =========                 |
  \\      /  F ield         | OpenFOAM: The Open Source CFD Toolbox
   \\    /   O peration     | Website:  https://openfoam.org
    \\  /    A nd           | Version:  13
     \\/     M anipulation  |
\*---------------------------------------------------------------------------*/
FoamFile
{
    format      ascii;
    class       volVectorField;
    location    "0.005";
    object      U;
}
// * * * * * * * * * * * * * * * * * * * * * * * * * * * * * * * * * * * * * //

dimensions      [0 1 -1 0 0 0 0];

internalField   nonuniform List<vector> 
1000
(
(-2.59264e-18 0 0)
(-7.23657e-15 0 0)
(5.84637e-14 0 0)
(1.24084e-13 0 0)
(1.46984e-14 0 0)
(-2.32317e-17 0 0)
(-4.38629e-14 0 0)
(-1.0221e-13 0 0)
(-4.38455e-14 0 0)
(1.46016e-14 0 0)
(6.56655e-14 0 0)
(-7.19092e-15 0 0)
(5.83243e-14 0 0)
(-7.24853e-15 0 0)
(-6.56933e-14 0 0)
(-5.85052e-14 0 0)
(7.28411e-15 0 0)
(1.16937e-13 0 0)
(1.90151e-13 0 0)
(1.46083e-13 0 0)
(1.16865e-13 0 0)
(5.84034e-14 0 0)
(-3.63575e-14 0 0)
(2.92431e-14 0 0)
(2.18816e-14 0 0)
(8.77015e-14 0 0)
(1.82775e-13 0 0)
(1.90023e-13 0 0)
(1.53345e-13 0 0)
(1.68168e-13 0 0)
(1.02311e-13 0 0)
(7.30981e-15 0 0)
(5.12626e-14 0 0)
(3.65416e-14 0 0)
(-2.92434e-14 0 0)
(-1.75517e-13 0 0)
(-1.02241e-13 0 0)
(-4.39679e-14 0 0)
(-2.41132e-13 0 0)
(-3.14205e-13 0 0)
(-1.97374e-13 0 0)
(4.38434e-14 0 0)
(1.82722e-13 0 0)
(1.97382e-13 0 0)
(-4.38975e-14 0 0)
(-8.7785e-14 0 0)
(-1.09706e-13 0 0)
(-2.77573e-13 0 0)
(-3.58094e-13 0 0)
(-1.53513e-13 0 0)
(1.45777e-14 0 0)
(-3.64932e-14 0 0)
(7.30713e-14 0 0)
(-3.66334e-14 0 0)
(1.73834e-18 0 0)
(-9.50683e-14 0 0)
(-3.28831e-13 0 0)
(-4.09216e-13 0 0)
(-5.40838e-13 0 0)
(-7.31273e-14 0 0)
(7.19857e-15 0 0)
(-1.60746e-13 0 0)
(-2.63138e-13 0 0)
(-2.04596e-13 0 0)
(-1.53475e-13 0 0)
(-1.53508e-13 0 0)
(-8.03465e-14 0 0)
(-2.92271e-14 0 0)
(1.38783e-13 0 0)
(-5.1085e-14 0 0)
(1.60681e-13 0 0)
(7.29412e-14 0 0)
(-3.79855e-13 0 0)
(-3.87253e-13 0 0)
(6.57459e-14 0 0)
(5.11532e-13 0 0)
(3.87451e-13 0 0)
(4.67673e-13 0 0)
(3.43527e-13 0 0)
(1.24274e-13 0 0)
(6.56576e-14 0 0)
(-8.7616e-14 0 0)
(-1.45076e-14 0 0)
(1.60742e-13 0 0)
(2.99641e-13 0 0)
(1.90047e-13 0 0)
(3.43484e-13 0 0)
(2.70403e-13 0 0)
(1.16977e-13 0 0)
(1.68176e-13 0 0)
(7.30711e-14 0 0)
(2.92323e-13 0 0)
(5.48201e-13 0 0)
(4.38436e-13 0 0)
(3.28922e-13 0 0)
(3.801e-13 0 0)
(2.77625e-13 0 0)
(2.04729e-13 0 0)
(2.33958e-13 0 0)
(3.8003e-13 0 0)
(4.89685e-13 0 0)
(2.63172e-13 0 0)
(2.70389e-13 0 0)
(2.55779e-13 0 0)
(1.16941e-13 0 0)
(-1.46106e-13 0 0)
(7.27877e-15 0 0)
(4.38813e-14 0 0)
(1.38846e-13 0 0)
(2.55793e-13 0 0)
(2.48547e-13 0 0)
(3.50774e-13 0 0)
(1.16948e-13 0 0)
(-1.68072e-13 0 0)
(-1.46173e-13 0 0)
(-1.16972e-13 0 0)
(-1.97285e-13 0 0)
(-2.26589e-13 0 0)
(-2.48543e-13 0 0)
(-2.55819e-13 0 0)
(-2.63089e-13 0 0)
(-2.26596e-13 0 0)
(-1.89984e-13 0 0)
(-1.46273e-13 0 0)
(-2.11862e-13 0 0)
(-1.38956e-13 0 0)
(-1.24153e-13 0 0)
(-2.93183e-14 0 0)
(7.31207e-14 0 0)
(6.57733e-14 0 0)
(2.19343e-14 0 0)
(-7.30971e-14 0 0)
(-1.89995e-13 0 0)
(-8.04211e-14 0 0)
(-3.65395e-14 0 0)
(1.46322e-14 0 0)
(7.30152e-14 0 0)
(3.6552e-14 0 0)
(7.8049e-17 0 0)
(5.84727e-14 0 0)
(1.46102e-13 0 0)
(1.02388e-13 0 0)
(1.02318e-13 0 0)
(8.03706e-14 0 0)
(1.31546e-13 0 0)
(1.16989e-13 0 0)
(1.60722e-13 0 0)
(1.17039e-13 0 0)
(1.82627e-13 0 0)
(1.31648e-13 0 0)
(1.89894e-13 0 0)
(5.86074e-14 0 0)
(1.09543e-13 0 0)
(9.50997e-14 0 0)
(1.46119e-13 0 0)
(8.04429e-14 0 0)
(9.49818e-14 0 0)
(2.92534e-14 0 0)
(2.18859e-14 0 0)
(-5.11047e-14 0 0)
(-2.1922e-14 0 0)
(-2.82095e-17 0 0)
(2.19171e-14 0 0)
(1.46808e-14 0 0)
(6.57929e-14 0 0)
(1.46086e-13 0 0)
(9.50656e-14 0 0)
(1.0231e-13 0 0)
(8.04227e-14 0 0)
(1.31522e-13 0 0)
(1.0969e-13 0 0)
(1.60709e-13 0 0)
(1.09735e-13 0 0)
(1.75316e-13 0 0)
(1.24338e-13 0 0)
(1.82571e-13 0 0)
(5.134e-14 0 0)
(1.38798e-13 0 0)
(1.38817e-13 0 0)
(8.03834e-14 0 0)
(-7.22517e-15 0 0)
(2.19252e-14 0 0)
(3.64941e-14 0 0)
(-2.92548e-14 0 0)
(-8.76211e-14 0 0)
(-2.19203e-14 0 0)
(7.26045e-15 0 0)
(1.45969e-14 0 0)
(2.19728e-14 0 0)
(1.45862e-14 0 0)
(-1.45765e-14 0 0)
(-1.46728e-14 0 0)
(-5.84533e-14 0 0)
(-1.38804e-13 0 0)
(-5.8635e-14 0 0)
(-2.48463e-13 0 0)
(-3.36138e-13 0 0)
(-3.58092e-13 0 0)
(-2.55873e-13 0 0)
(-3.14139e-13 0 0)
(-6.58504e-14 0 0)
(-7.37727e-15 0 0)
(-1.31551e-13 0 0)
(-2.92763e-14 0 0)
(-1.16931e-13 0 0)
(-1.75365e-13 0 0)
(-8.0393e-14 0 0)
(-8.03986e-14 0 0)
(-6.58556e-14 0 0)
(-1.68056e-13 0 0)
(-1.46149e-13 0 0)
(-1.97375e-13 0 0)
(-2.85139e-13 0 0)
(-3.1418e-13 0 0)
(-2.63127e-13 0 0)
(-2.4849e-13 0 0)
(-2.2663e-13 0 0)
(-2.63065e-13 0 0)
(-2.77774e-13 0 0)
(-3.07097e-13 0 0)
(-4.53141e-13 0 0)
(-5.84596e-13 0 0)
(-4.89665e-13 0 0)
(-4.23998e-13 0 0)
(-4.45702e-13 0 0)
(-2.85129e-13 0 0)
(-2.48476e-13 0 0)
(-1.82753e-13 0 0)
(-1.97445e-13 0 0)
(-2.63097e-13 0 0)
(-2.04534e-13 0 0)
(-1.24297e-13 0 0)
(-2.70432e-13 0 0)
(-1.02379e-13 0 0)
(-8.03487e-14 0 0)
(-9.49671e-14 0 0)
(1.46221e-14 0 0)
(1.68043e-13 0 0)
(1.0235e-13 0 0)
(-1.46103e-14 0 0)
(2.19603e-14 0 0)
(-9.58095e-17 0 0)
(-1.38901e-13 0 0)
(-2.84873e-13 0 0)
(-1.82878e-13 0 0)
(-2.04642e-13 0 0)
(-2.11924e-13 0 0)
(-1.46112e-13 0 0)
(-7.32131e-14 0 0)
(-8.00777e-14 0 0)
(3.43285e-13 0 0)
(3.28845e-13 0 0)
(2.77777e-13 0 0)
(1.89995e-13 0 0)
(1.68153e-13 0 0)
(1.75402e-13 0 0)
(2.04679e-13 0 0)
(1.90014e-13 0 0)
(2.70429e-13 0 0)
(7.74769e-13 0 0)
(1.36676e-12 0 0)
(2.96746e-12 0 0)
(5.68638e-12 0 0)
(1.32877e-11 0 0)
(2.79714e-11 0 0)
(6.21701e-11 0 0)
(1.33389e-10 0 0)
(2.92015e-10 0 0)
(6.27081e-10 0 0)
(1.34966e-09 0 0)
(2.87459e-09 0 0)
(6.09908e-09 0 0)
(1.28365e-08 0 0)
(2.68467e-08 0 0)
(5.57238e-08 0 0)
(1.14832e-07 0 0)
(2.34837e-07 0 0)
(4.76572e-07 0 0)
(9.59495e-07 0 0)
(1.91617e-06 0 0)
(3.79496e-06 0 0)
(7.4519e-06 0 0)
(1.45047e-05 0 0)
(2.79782e-05 0 0)
(5.34662e-05 0 0)
(0.000101194 0 0)
(0.000189626 0 0)
(0.000351684 0 0)
(0.000645271 0 0)
(0.00117077 0 0)
(0.00209951 0 0)
(0.00371909 0 0)
(0.00650338 0 0)
(0.0112175 0 0)
(0.0190685 0 0)
(0.0319109 0 0)
(0.0525052 0 0)
(0.084809 0 0)
(0.134239 0 0)
(0.207809 0 0)
(0.314013 0 0)
(0.462392 0 0)
(0.6628 0 0)
(0.924543 0 0)
(1.2556 0 0)
(1.66208 0 0)
(2.14797 0 0)
(2.71512 0 0)
(3.36345 0 0)
(4.09127 0 0)
(4.8956 0 0)
(5.77254 0 0)
(6.71759 0 0)
(7.72592 0 0)
(8.79259 0 0)
(9.91271 0 0)
(11.0816 0 0)
(12.2947 0 0)
(13.5479 0 0)
(14.8373 0 0)
(16.1595 0 0)
(17.5111 0 0)
(18.8894 0 0)
(20.2918 0 0)
(21.7158 0 0)
(23.1594 0 0)
(24.6207 0 0)
(26.098 0 0)
(27.5899 0 0)
(29.0949 0 0)
(30.612 0 0)
(32.1399 0 0)
(33.6778 0 0)
(35.2248 0 0)
(36.7801 0 0)
(38.3431 0 0)
(39.913 0 0)
(41.4893 0 0)
(43.0715 0 0)
(44.6592 0 0)
(46.2519 0 0)
(47.8492 0 0)
(49.4507 0 0)
(51.0563 0 0)
(52.6654 0 0)
(54.278 0 0)
(55.8937 0 0)
(57.5123 0 0)
(59.1336 0 0)
(60.7574 0 0)
(62.3835 0 0)
(64.0117 0 0)
(65.6419 0 0)
(67.274 0 0)
(68.9077 0 0)
(70.5429 0 0)
(72.1796 0 0)
(73.8175 0 0)
(75.4566 0 0)
(77.0967 0 0)
(78.7377 0 0)
(80.3795 0 0)
(82.0219 0 0)
(83.6649 0 0)
(85.3084 0 0)
(86.9521 0 0)
(88.596 0 0)
(90.2399 0 0)
(91.8836 0 0)
(93.5271 0 0)
(95.1701 0 0)
(96.8123 0 0)
(98.4537 0 0)
(100.094 0 0)
(101.733 0 0)
(103.37 0 0)
(105.005 0 0)
(106.637 0 0)
(108.267 0 0)
(109.892 0 0)
(111.514 0 0)
(113.13 0 0)
(114.739 0 0)
(116.341 0 0)
(117.934 0 0)
(119.516 0 0)
(121.084 0 0)
(122.636 0 0)
(124.167 0 0)
(125.673 0 0)
(127.147 0 0)
(128.584 0 0)
(129.973 0 0)
(131.305 0 0)
(132.569 0 0)
(133.75 0 0)
(134.838 0 0)
(135.819 0 0)
(136.685 0 0)
(137.428 0 0)
(138.049 0 0)
(138.552 0 0)
(138.944 0 0)
(139.24 0 0)
(139.455 0 0)
(139.605 0 0)
(139.704 0 0)
(139.767 0 0)
(139.804 0 0)
(139.825 0 0)
(139.837 0 0)
(139.845 0 0)
(139.855 0 0)
(139.87 0 0)
(139.894 0 0)
(139.935 0 0)
(140.005 0 0)
(140.122 0 0)
(140.317 0 0)
(140.624 0 0)
(141.085 0 0)
(141.734 0 0)
(142.591 0 0)
(143.651 0 0)
(144.894 0 0)
(146.288 0 0)
(147.806 0 0)
(149.419 0 0)
(151.107 0 0)
(152.853 0 0)
(154.644 0 0)
(156.47 0 0)
(158.325 0 0)
(160.202 0 0)
(162.098 0 0)
(164.008 0 0)
(165.93 0 0)
(167.863 0 0)
(169.804 0 0)
(171.753 0 0)
(173.707 0 0)
(175.666 0 0)
(177.63 0 0)
(179.598 0 0)
(181.569 0 0)
(183.543 0 0)
(185.52 0 0)
(187.499 0 0)
(189.48 0 0)
(191.462 0 0)
(193.447 0 0)
(195.432 0 0)
(197.42 0 0)
(199.408 0 0)
(201.397 0 0)
(203.388 0 0)
(205.379 0 0)
(207.372 0 0)
(209.365 0 0)
(211.358 0 0)
(213.353 0 0)
(215.348 0 0)
(217.344 0 0)
(219.34 0 0)
(221.337 0 0)
(223.335 0 0)
(225.333 0 0)
(227.331 0 0)
(229.33 0 0)
(231.329 0 0)
(233.329 0 0)
(235.329 0 0)
(237.33 0 0)
(239.331 0 0)
(241.332 0 0)
(243.334 0 0)
(245.335 0 0)
(247.338 0 0)
(249.34 0 0)
(251.343 0 0)
(253.345 0 0)
(255.348 0 0)
(257.351 0 0)
(259.354 0 0)
(261.357 0 0)
(263.36 0 0)
(265.362 0 0)
(267.364 0 0)
(269.365 0 0)
(271.366 0 0)
(273.365 0 0)
(275.363 0 0)
(277.36 0 0)
(279.354 0 0)
(281.345 0 0)
(283.333 0 0)
(285.317 0 0)
(287.295 0 0)
(289.267 0 0)
(291.234 0 0)
(293.196 0 0)
(295.159 0 0)
(297.117 0 0)
(299.061 0 0)
(300.984 0 0)
(302.88 0 0)
(304.741 0 0)
(306.556 0 0)
(308.313 0 0)
(309.991 0 0)
(311.568 0 0)
(313.013 0 0)
(314.294 0 0)
(315.385 0 0)
(316.271 0 0)
(316.957 0 0)
(317.46 0 0)
(317.809 0 0)
(318.033 0 0)
(318.166 0 0)
(318.234 0 0)
(318.263 0 0)
(318.273 0 0)
(318.276 0 0)
(318.277 0 0)
(318.278 0 0)
(318.279 0 0)
(318.28 0 0)
(318.282 0 0)
(318.284 0 0)
(318.284 0 0)
(318.28 0 0)
(318.277 0 0)
(318.274 0 0)
(318.273 0 0)
(318.271 0 0)
(318.27 0 0)
(318.269 0 0)
(318.269 0 0)
(318.268 0 0)
(318.268 0 0)
(318.268 0 0)
(318.268 0 0)
(318.268 0 0)
(318.268 0 0)
(318.268 0 0)
(318.269 0 0)
(318.269 0 0)
(318.269 0 0)
(318.269 0 0)
(318.27 0 0)
(318.27 0 0)
(318.27 0 0)
(318.271 0 0)
(318.271 0 0)
(318.271 0 0)
(318.271 0 0)
(318.272 0 0)
(318.272 0 0)
(318.272 0 0)
(318.272 0 0)
(318.272 0 0)
(318.272 0 0)
(318.273 0 0)
(318.273 0 0)
(318.273 0 0)
(318.273 0 0)
(318.273 0 0)
(318.273 0 0)
(318.273 0 0)
(318.273 0 0)
(318.274 0 0)
(318.274 0 0)
(318.274 0 0)
(318.274 0 0)
(318.274 0 0)
(318.274 0 0)
(318.274 0 0)
(318.274 0 0)
(318.274 0 0)
(318.274 0 0)
(318.274 0 0)
(318.274 0 0)
(318.275 0 0)
(318.275 0 0)
(318.275 0 0)
(318.275 0 0)
(318.275 0 0)
(318.275 0 0)
(318.275 0 0)
(318.275 0 0)
(318.275 0 0)
(318.275 0 0)
(318.275 0 0)
(318.275 0 0)
(318.275 0 0)
(318.275 0 0)
(318.275 0 0)
(318.275 0 0)
(318.275 0 0)
(318.275 0 0)
(318.275 0 0)
(318.275 0 0)
(318.275 0 0)
(318.275 0 0)
(318.275 0 0)
(318.275 0 0)
(318.275 0 0)
(318.275 0 0)
(318.275 0 0)
(318.275 0 0)
(318.275 0 0)
(318.275 0 0)
(318.275 0 0)
(318.275 0 0)
(318.275 0 0)
(318.275 0 0)
(318.275 0 0)
(318.275 0 0)
(318.275 0 0)
(318.275 0 0)
(318.275 0 0)
(318.275 0 0)
(318.275 0 0)
(318.275 0 0)
(318.275 0 0)
(318.275 0 0)
(318.275 0 0)
(318.275 0 0)
(318.275 0 0)
(318.275 0 0)
(318.275 0 0)
(318.275 0 0)
(318.275 0 0)
(318.275 0 0)
(318.275 0 0)
(318.275 0 0)
(318.275 0 0)
(318.275 0 0)
(318.275 0 0)
(318.275 0 0)
(318.275 0 0)
(318.274 0 0)
(318.274 0 0)
(318.274 0 0)
(318.275 0 0)
(318.275 0 0)
(318.275 0 0)
(318.275 0 0)
(318.276 0 0)
(318.278 0 0)
(318.279 0 0)
(318.282 0 0)
(318.286 0 0)
(318.29 0 0)
(318.296 0 0)
(318.302 0 0)
(318.308 0 0)
(318.314 0 0)
(318.319 0 0)
(318.322 0 0)
(318.322 0 0)
(318.319 0 0)
(318.314 0 0)
(318.307 0 0)
(318.3 0 0)
(318.295 0 0)
(318.291 0 0)
(318.289 0 0)
(318.288 0 0)
(318.288 0 0)
(318.287 0 0)
(318.287 0 0)
(318.287 0 0)
(318.287 0 0)
(318.287 0 0)
(318.287 0 0)
(318.287 0 0)
(318.287 0 0)
(318.287 0 0)
(318.287 0 0)
(318.286 0 0)
(318.286 0 0)
(318.286 0 0)
(318.286 0 0)
(318.286 0 0)
(318.286 0 0)
(318.286 0 0)
(318.286 0 0)
(318.286 0 0)
(318.285 0 0)
(318.285 0 0)
(318.285 0 0)
(318.285 0 0)
(318.285 0 0)
(318.285 0 0)
(318.285 0 0)
(318.285 0 0)
(318.284 0 0)
(318.284 0 0)
(318.284 0 0)
(318.284 0 0)
(318.284 0 0)
(318.284 0 0)
(318.284 0 0)
(318.284 0 0)
(318.283 0 0)
(318.283 0 0)
(318.283 0 0)
(318.283 0 0)
(318.283 0 0)
(318.283 0 0)
(318.283 0 0)
(318.282 0 0)
(318.282 0 0)
(318.282 0 0)
(318.282 0 0)
(318.282 0 0)
(318.282 0 0)
(318.281 0 0)
(318.281 0 0)
(318.281 0 0)
(318.281 0 0)
(318.281 0 0)
(318.281 0 0)
(318.28 0 0)
(318.28 0 0)
(318.28 0 0)
(318.28 0 0)
(318.28 0 0)
(318.279 0 0)
(318.279 0 0)
(318.279 0 0)
(318.279 0 0)
(318.278 0 0)
(318.278 0 0)
(318.278 0 0)
(318.278 0 0)
(318.278 0 0)
(318.277 0 0)
(318.277 0 0)
(318.277 0 0)
(318.277 0 0)
(318.276 0 0)
(318.276 0 0)
(318.276 0 0)
(318.276 0 0)
(318.275 0 0)
(318.275 0 0)
(318.275 0 0)
(318.274 0 0)
(318.274 0 0)
(318.274 0 0)
(318.273 0 0)
(318.273 0 0)
(318.273 0 0)
(318.272 0 0)
(318.272 0 0)
(318.272 0 0)
(318.271 0 0)
(318.271 0 0)
(318.271 0 0)
(318.27 0 0)
(318.27 0 0)
(318.269 0 0)
(318.269 0 0)
(318.268 0 0)
(318.268 0 0)
(318.267 0 0)
(318.268 0 0)
(318.265 0 0)
(318.267 0 0)
(318.262 0 0)
(318.266 0 0)
(318.257 0 0)
(318.267 0 0)
(318.25 0 0)
(318.27 0 0)
(318.235 0 0)
(318.267 0 0)
(318.193 0 0)
(318.232 0 0)
(318.066 0 0)
(318.064 0 0)
(317.665 0 0)
(317.342 0 0)
(316.423 0 0)
(314.185 0 0)
(311.631 0 0)
(301.457 0 0)
(291.316 0 0)
(253.735 0 0)
(198.401 0 0)
(81.3513 0 0)
(15.8561 0 0)
(2.60628 0 0)
(0.41744 0 0)
(0.0665843 0 0)
(0.0106109 0 0)
(0.00169075 0 0)
(0.000269391 0 0)
(4.29222e-05 0 0)
(6.83884e-06 0 0)
(1.08964e-06 0 0)
(1.73616e-07 0 0)
(2.7662e-08 0 0)
(4.40773e-09 0 0)
(7.02717e-10 0 0)
(1.11948e-10 0 0)
(1.76621e-11 0 0)
(3.24296e-12 0 0)
(3.91354e-13 0 0)
(1.41239e-13 0 0)
(1.32656e-13 0 0)
(1.16721e-13 0 0)
(1.37938e-16 0 0)
(9.46443e-14 0 0)
(3.12189e-13 0 0)
(1.87493e-13 0 0)
(1.79895e-13 0 0)
(1.80056e-13 0 0)
(1.48546e-13 0 0)
(2.65059e-13 0 0)
(5.08211e-13 0 0)
(4.77295e-13 0 0)
(5.31468e-13 0 0)
(3.83608e-13 0 0)
(5.08461e-13 0 0)
(8.82529e-13 0 0)
(7.66751e-13 0 0)
(9.07785e-13 0 0)
(1.3038e-12 0 0)
(1.16357e-12 0 0)
(6.59299e-13 0 0)
(9.46432e-13 0 0)
(1.256e-12 0 0)
(9.39083e-13 0 0)
(8.2056e-13 0 0)
(5.62725e-13 0 0)
(3.68064e-13 0 0)
(3.20324e-13 0 0)
(3.05484e-13 0 0)
(2.73303e-13 0 0)
(2.34553e-13 0 0)
(1.95549e-13 0 0)
(2.50186e-13 0 0)
(2.81429e-13 0 0)
(3.74603e-13 0 0)
(3.59273e-13 0 0)
(2.43209e-13 0 0)
(3.36541e-13 0 0)
(2.57355e-13 0 0)
(3.12889e-13 0 0)
(2.81582e-13 0 0)
(2.42961e-13 0 0)
(6.33427e-13 0 0)
(1.00733e-12 0 0)
(1.0315e-12 0 0)
(8.06911e-13 0 0)
(9.06945e-13 0 0)
(9.82864e-13 0 0)
(7.59451e-13 0 0)
(7.26508e-13 0 0)
(6.7226e-13 0 0)
(7.27608e-13 0 0)
(6.79686e-13 0 0)
(5.24605e-13 0 0)
(5.54889e-13 0 0)
(4.92389e-13 0 0)
(4.0643e-13 0 0)
(5.08238e-13 0 0)
(5.63174e-13 0 0)
(6.47966e-13 0 0)
(3.36292e-13 0 0)
(2.42399e-13 0 0)
(2.97424e-13 0 0)
(1.01633e-13 0 0)
(9.3913e-14 0 0)
(-2.3816e-14 0 0)
(-1.87537e-13 0 0)
(-3.66616e-13 0 0)
(-8.54334e-15 0 0)
(2.49492e-13 0 0)
(-4.51431e-14 0 0)
(1.48534e-13 0 0)
(2.00861e-13 0 0)
(-7.71244e-14 0 0)
(-1.5682e-13 0 0)
(-3.51681e-13 0 0)
(-2.49162e-13 0 0)
(-1.09817e-13 0 0)
(-2.73179e-13 0 0)
(-3.91276e-13 0 0)
(-3.12692e-13 0 0)
(-2.49963e-13 0 0)
(-2.49997e-13 0 0)
(-2.18731e-13 0 0)
(-1.73197e-13 0 0)
(-2.49331e-13 0 0)
(-1.87468e-13 0 0)
(-7.85313e-14 0 0)
(-2.34745e-13 0 0)
(-3.60623e-13 0 0)
(-8.03586e-13 0 0)
(-7.19461e-13 0 0)
(-5.47899e-13 0 0)
(-6.00293e-13 0 0)
(-5.00911e-13 0 0)
(-5.47496e-13 0 0)
(-4.53322e-13 0 0)
(-2.31915e-14 0 0)
(2.18126e-13 0 0)
(2.73608e-13 0 0)
(2.43289e-13 0 0)
(2.72918e-13 0 0)
(2.34628e-13 0 0)
(2.03327e-13 0 0)
(2.18161e-13 0 0)
(6.17268e-14 0 0)
(-3.73747e-13 0 0)
(-3.20448e-13 0 0)
(-1.87902e-13 0 0)
(-1.40617e-13 0 0)
(8.1098e-15 0 0)
(2.26712e-13 0 0)
(1.64039e-13 0 0)
(3.04465e-13 0 0)
(5.61906e-13 0 0)
(3.9188e-13 0 0)
(3.67755e-13 0 0)
(4.37877e-13 0 0)
(5.55095e-13 0 0)
(8.05859e-13 0 0)
(1.05498e-12 0 0)
(1.14834e-12 0 0)
(1.01702e-12 0 0)
(1.14103e-12 0 0)
(1.05511e-12 0 0)
(1.08665e-12 0 0)
(1.14946e-12 0 0)
(1.08687e-12 0 0)
(1.02418e-12 0 0)
(1.07871e-12 0 0)
(1.07009e-12 0 0)
(8.84138e-13 0 0)
(7.81659e-13 0 0)
(5.86276e-13 0 0)
(6.80463e-13 0 0)
(7.58318e-13 0 0)
(7.66207e-13 0 0)
(9.77387e-13 0 0)
(1.10207e-12 0 0)
(1.05423e-12 0 0)
(7.04518e-13 0 0)
(7.97455e-13 0 0)
(8.59982e-13 0 0)
(9.30592e-13 0 0)
(1.05523e-12 0 0)
(7.82237e-13 0 0)
(9.29926e-13 0 0)
(8.83317e-13 0 0)
(7.89585e-13 0 0)
(6.17309e-13 0 0)
(6.09771e-13 0 0)
(5.70744e-13 0 0)
(4.22337e-13 0 0)
(3.75724e-13 0 0)
(6.64424e-13 0 0)
(8.66988e-13 0 0)
(6.64918e-13 0 0)
(5.1584e-13 0 0)
(3.75387e-13 0 0)
(4.77053e-13 0 0)
(6.01825e-13 0 0)
(5.70613e-13 0 0)
(6.02529e-13 0 0)
(7.81644e-13 0 0)
(8.11941e-13 0 0)
(7.43515e-13 0 0)
(7.89445e-13 0 0)
(7.03408e-13 0 0)
(5.6307e-13 0 0)
(4.84994e-13 0 0)
(4.76938e-13 0 0)
(4.76423e-13 0 0)
(5.31746e-13 0 0)
(6.25534e-13 0 0)
(6.80047e-13 0 0)
(7.27024e-13 0 0)
(7.73902e-13 0 0)
(7.03716e-13 0 0)
(7.89661e-13 0 0)
(7.11622e-13 0 0)
(6.95031e-13 0 0)
(6.02696e-13 0 0)
(7.11015e-13 0 0)
(8.05157e-13 0 0)
(8.44665e-13 0 0)
(8.05016e-13 0 0)
(8.44392e-13 0 0)
)
;

boundaryField
{
    sides
    {
        type            zeroGradient;
    }
    empty
    {
        type            empty;
    }
}


// ************************************************************************* //
