# Probe 0 (0 0 0)
# Time        0            
0             0.527515     
0.001         0.585999     
