# Probe 0 (0 0 0)
# Time        0            
0             0.000210421  
0.001         0.000217615  
