# Probe 0 (0 0 0)
# Time        0            
0             0.03         
0.001         0.177996     
