# Probe 0 (0 0 0)
# Time        0            
0             0.7          
0.001         0.561821     
