# Probe 0 (0 0 0)
# Time        0            
0             0.21         
0.001         0.000239419  
