/*--------------------------------*- C++ -*----------------------------------*\
  =========                 |
  \\      /  F ield         | OpenFOAM: The Open Source CFD Toolbox
   \\    /   O peration     | Website:  https://openfoam.org
    \\  /    A nd           | Version:  13
     \\/     M anipulation  |
\*---------------------------------------------------------------------------*/
FoamFile
{
    format      ascii;
    class       volScalarField;
    location    "0.003";
    object      mag(U);
}
// * * * * * * * * * * * * * * * * * * * * * * * * * * * * * * * * * * * * * //

dimensions      [0 1 -1 0 0 0 0];

internalField   nonuniform List<scalar> 
1000
(
1.5737e-18
7.26566e-15
5.84668e-14
1.24152e-13
1.46658e-14
1.38945e-17
4.3859e-14
1.02256e-13
4.38488e-14
1.46083e-14
6.57118e-14
7.23888e-15
5.83838e-14
4.38174e-14
7.30373e-14
1.46383e-14
1.5689e-17
7.31312e-15
2.91629e-14
8.03405e-14
8.76598e-14
2.91945e-14
1.09521e-13
5.11606e-14
3.10033e-17
3.41789e-18
7.26567e-15
5.84668e-14
1.24152e-13
1.46658e-14
1.38945e-17
4.3859e-14
1.02256e-13
4.38488e-14
1.46083e-14
6.57118e-14
7.23888e-15
5.83838e-14
4.38174e-14
7.30373e-14
1.46383e-14
1.5689e-17
7.31312e-15
2.91629e-14
8.03405e-14
8.76598e-14
2.91945e-14
1.09521e-13
4.38512e-14
5.11338e-14
1.38867e-13
1.46218e-13
1.53481e-13
1.46086e-13
1.60842e-13
7.30805e-14
7.30268e-15
5.12244e-14
1.24255e-13
8.77017e-14
1.16877e-13
1.09684e-13
6.57182e-14
2.18888e-14
3.65863e-14
1.16917e-13
8.04026e-14
1.09644e-13
2.48525e-13
3.28869e-13
3.72712e-13
2.55775e-13
1.46995e-14
2.19237e-14
8.0399e-14
1.60794e-13
2.1197e-13
1.24254e-13
4.38104e-14
5.8477e-14
2.92233e-14
1.45734e-14
1.09603e-13
3.65152e-14
2.19458e-14
9.49829e-14
1.24244e-13
8.0385e-14
3.65661e-14
2.19812e-14
1.16897e-13
1.09606e-13
4.39058e-14
9.49731e-14
5.84655e-14
2.92646e-14
4.37788e-14
1.09598e-13
1.46139e-13
1.60817e-13
2.26567e-13
1.60765e-13
2.92828e-14
2.19374e-14
2.92318e-14
1.09606e-13
5.11858e-14
3.65271e-14
3.6554e-14
3.65566e-14
8.76713e-14
1.38916e-13
1.46181e-13
1.75377e-13
1.46192e-13
1.68125e-13
1.97296e-13
1.7542e-13
2.19314e-13
2.04647e-13
2.04634e-13
1.60825e-13
2.11908e-13
1.46235e-13
1.09583e-13
9.50778e-14
1.60737e-13
1.24331e-13
1.16872e-13
1.24249e-13
8.03848e-14
3.65487e-14
1.34784e-17
1.46076e-14
2.99795e-18
1.4637e-14
8.03577e-14
1.31568e-13
1.02367e-13
4.3843e-14
8.76754e-14
1.09687e-13
1.02325e-13
8.03441e-14
1.31568e-13
1.1697e-13
1.60752e-13
1.17002e-13
1.82667e-13
1.31614e-13
1.89961e-13
5.85419e-14
1.09563e-13
9.50787e-14
1.4616e-13
8.04217e-14
9.50033e-14
2.92356e-14
2.191e-14
5.11446e-14
2.19218e-14
2.71914e-17
2.19256e-14
1.46601e-14
6.57835e-14
1.46133e-13
9.50482e-14
1.02318e-13
8.03965e-14
1.31546e-13
1.09666e-13
1.60744e-13
1.09695e-13
1.75356e-13
1.24303e-13
1.82637e-13
5.1261e-14
1.38829e-13
1.38842e-13
8.0393e-14
7.26967e-15
2.19304e-14
3.65263e-14
2.92594e-14
8.767e-14
2.19084e-14
7.2702e-15
1.45979e-14
2.19794e-14
4.38311e-14
7.28287e-15
1.45896e-14
5.11377e-14
1.38859e-13
6.58449e-14
2.48497e-13
3.87333e-13
3.36206e-13
3.5085e-13
2.92318e-13
3.65609e-14
5.11631e-14
1.16911e-13
1.1695e-13
6.57892e-14
8.03917e-14
3.65172e-14
1.02326e-13
8.04504e-14
8.7663e-14
8.03759e-14
4.38642e-14
3.66163e-14
5.83983e-14
4.38739e-14
1.16924e-13
8.0443e-14
1.09598e-13
8.77295e-14
1.46235e-13
2.92345e-13
5.33521e-13
4.7506e-13
3.80099e-13
4.38464e-13
2.99702e-13
3.43504e-13
2.48526e-13
1.16997e-13
1.97337e-13
2.55747e-13
1.02327e-13
7.31315e-14
8.04024e-14
3.1424e-13
2.63109e-13
2.04649e-13
1.8275e-13
1.68072e-13
1.53499e-13
1.82691e-13
1.53524e-13
5.85093e-14
2.0457e-13
5.12565e-14
1.16923e-13
1.24214e-13
1.97314e-13
1.24333e-13
2.48352e-13
9.49338e-14
1.82639e-13
2.19291e-13
2.33857e-13
2.70485e-13
2.19228e-13
3.65484e-13
3.21587e-13
3.28892e-13
4.09328e-13
4.38505e-13
3.8009e-13
4.75092e-13
5.48181e-13
6.06619e-13
5.40863e-13
4.09305e-13
3.65385e-13
3.14341e-13
3.14243e-13
2.41249e-13
2.19211e-13
1.53538e-13
1.46133e-13
1.60854e-13
3.43498e-13
2.85019e-13
1.75433e-13
2.26617e-13
1.6077e-13
1.608e-13
2.19272e-13
2.85003e-13
2.19269e-13
3.14354e-13
4.01954e-13
3.28916e-13
3.94702e-13
4.38513e-13
4.89707e-13
5.26236e-13
6.21271e-13
7.3822e-13
6.79705e-13
7.74757e-13
8.84396e-13
8.62435e-13
8.99023e-13
8.40527e-13
8.25935e-13
9.35439e-13
8.69761e-13
7.45529e-13
7.01678e-13
6.57831e-13
6.94305e-13
7.67423e-13
6.6516e-13
7.16262e-13
7.74742e-13
8.33163e-13
6.06699e-13
5.04394e-13
6.79626e-13
5.77429e-13
4.75062e-13
3.8742e-13
3.94624e-13
3.58139e-13
2.55872e-13
2.55794e-13
1.82736e-13
1.82671e-13
8.03842e-14
7.30074e-14
1.68077e-13
2.41192e-13
1.68092e-13
1.46348e-14
1.46226e-13
3.72717e-13
4.89675e-13
3.87407e-13
2.99666e-13
1.38848e-13
3.65372e-14
1.53448e-13
2.26545e-13
2.55885e-13
2.33896e-13
1.45749e-14
1.75474e-13
8.18611e-13
2.28041e-12
5.58405e-12
1.40478e-11
3.22984e-11
7.98433e-11
1.92555e-10
4.65926e-10
1.11865e-09
2.66717e-09
6.30763e-09
1.47874e-08
3.43522e-08
7.90732e-08
1.80271e-07
4.07014e-07
9.0977e-07
2.01281e-06
4.40644e-06
9.54251e-06
2.04354e-05
4.32608e-05
9.04961e-05
0.000186984
0.000381428
0.000767767
0.00152405
0.00298149
0.00574389
0.0108878
0.0202857
0.0371051
0.0665316
0.116727
0.199912
0.333241
0.538816
0.842149
1.26899
1.84149
2.57535
3.47873
4.55274
5.79278
7.19015
8.73361
10.4105
12.2079
14.1131
16.1141
18.1998
20.3602
22.5864
24.8705
27.2054
29.5851
32.0044
34.4585
36.9434
39.4555
41.9919
44.5498
47.1268
49.7209
52.3302
54.9532
57.5882
60.2341
62.8896
65.5536
68.2253
70.9036
73.5876
76.2766
78.9697
81.6661
84.365
87.0655
89.7667
92.4675
95.1669
97.8633
100.555
103.241
105.918
108.582
111.231
113.858
116.457
119.018
121.528
123.972
126.328
128.569
130.665
132.582
134.287
135.752
136.961
137.914
138.628
139.134
139.472
139.686
139.819
139.906
140.015
140.204
140.543
141.126
142.052
143.395
145.165
147.313
149.762
152.434
155.269
158.22
161.255
164.352
167.495
170.674
173.879
177.106
180.35
183.607
186.875
190.153
193.438
196.73
200.027
203.33
206.636
209.946
213.26
216.576
219.895
223.217
226.541
229.868
233.196
236.526
239.859
243.192
246.528
249.864
253.201
256.539
259.877
263.214
266.55
269.884
273.213
276.536
279.849
283.15
286.43
289.695
292.931
296.15
299.321
302.402
305.346
308.099
310.591
312.743
314.493
315.815
316.745
317.363
317.76
318.01
318.161
318.242
318.275
318.283
318.28
318.278
318.276
318.275
318.274
318.273
318.271
318.269
318.267
318.266
318.266
318.269
318.273
318.275
318.277
318.277
318.276
318.274
318.271
318.267
318.264
318.262
318.26
318.259
318.258
318.257
318.256
318.256
318.256
318.255
318.255
318.255
318.255
318.255
318.256
318.256
318.256
318.256
318.256
318.256
318.257
318.257
318.257
318.257
318.257
318.257
318.257
318.257
318.257
318.257
318.257
318.257
318.257
318.257
318.257
318.257
318.257
318.257
318.257
318.257
318.257
318.257
318.257
318.256
318.256
318.256
318.256
318.257
318.257
318.258
318.261
318.264
318.27
318.278
318.288
318.3
318.312
318.323
318.329
318.329
318.321
318.307
318.292
318.281
318.275
318.272
318.272
318.272
318.271
318.272
318.272
318.27
318.271
318.271
318.27
318.269
318.269
318.269
318.268
318.268
318.268
318.267
318.267
318.267
318.266
318.266
318.265
318.265
318.264
318.264
318.263
318.263
318.262
318.262
318.261
318.261
318.26
318.26
318.259
318.259
318.258
318.257
318.257
318.256
318.255
318.254
318.254
318.253
318.252
318.251
318.25
318.25
318.248
318.248
318.246
318.246
318.242
318.244
318.237
318.243
318.229
318.243
318.217
318.243
318.19
318.228
318.116
318.147
317.887
317.795
317.189
316.266
314.788
309.827
304.945
284.961
261.612
190.514
83.9058
15.4383
2.5753
0.412421
0.0657666
0.0104813
0.00167018
0.000266142
4.24097e-05
6.75798e-06
1.07688e-06
1.71602e-07
2.73434e-08
4.35702e-09
6.93702e-10
1.09773e-10
1.69664e-11
1.69751e-12
6.72012e-13
9.54994e-13
1.19506e-12
1.26651e-12
1.35348e-12
1.64125e-12
1.73477e-12
1.60298e-12
1.59452e-12
1.57908e-12
1.50941e-12
1.52395e-12
1.40745e-12
1.39197e-12
1.42221e-12
1.28221e-12
1.23467e-12
1.2588e-12
1.20474e-12
1.28189e-12
1.13353e-12
1.11818e-12
1.16407e-12
1.17302e-12
1.4063e-12
1.21224e-12
1.33743e-12
1.31323e-12
1.14982e-12
1.17227e-12
1.04742e-12
8.91149e-13
8.20917e-13
8.59446e-13
4.92754e-13
2.03958e-13
1.55776e-13
3.17944e-14
1.17703e-13
1.32091e-13
1.59796e-14
3.74536e-13
9.35559e-14
1.6271e-13
2.6532e-13
1.80024e-13
1.48452e-13
2.02572e-13
9.47173e-14
4.13214e-13
3.5961e-13
2.89932e-13
3.20177e-13
2.04004e-13
3.826e-13
3.59411e-13
2.581e-13
3.91094e-13
4.21371e-13
1.7204e-13
1.63698e-13
3.20901e-13
4.75681e-13
1.17995e-13
8.64713e-14
8.577e-14
5.51383e-14
3.98369e-13
7.10954e-13
5.94298e-13
5.00109e-13
2.6527e-13
4.00247e-14
3.89764e-14
6.2506e-14
1.25018e-13
1.2497e-13
1.56393e-13
1.02313e-13
6.23102e-14
5.44829e-14
1.95471e-13
1.56137e-13
2.50527e-13
3.43886e-13
2.96934e-13
3.36234e-13
2.65422e-13
1.95286e-13
8.45958e-14
2.50222e-13
3.49854e-13
2.58592e-13
2.58095e-13
1.57878e-14
4.64281e-14
3.86337e-14
8.54897e-14
2.18876e-13
1.48584e-13
1.95628e-13
2.02984e-13
2.65622e-13
2.43167e-13
6.25264e-14
2.34241e-13
1.24667e-13
1.33166e-13
3.8816e-14
5.46136e-14
7.02125e-14
1.95767e-13
3.90106e-13
4.1425e-13
3.92223e-13
6.02123e-13
5.30574e-13
2.58172e-13
7.85609e-14
2.1923e-13
3.13095e-13
1.72061e-13
1.79188e-13
1.57455e-14
1.01521e-13
4.67981e-14
1.64363e-13
3.04778e-13
4.1396e-13
2.58121e-13
4.6805e-14
3.17544e-14
2.33518e-14
1.32949e-13
2.7352e-13
2.89529e-13
3.98902e-13
6.24617e-13
6.25078e-13
4.38936e-13
5.55456e-13
7.41046e-13
6.18147e-13
6.56644e-13
6.32997e-13
4.3827e-13
3.82968e-13
2.81769e-13
3.20366e-13
2.65781e-13
1.95366e-13
4.53556e-13
6.33264e-13
6.79887e-13
5.08071e-13
4.06464e-13
4.69691e-13
5.70308e-13
5.23939e-13
5.62649e-13
5.55327e-13
5.23948e-13
5.85593e-13
3.59517e-13
1.33822e-13
4.22447e-13
5.77149e-13
4.69764e-13
4.92204e-13
4.29656e-13
3.68085e-13
2.50157e-13
1.40911e-13
2.65736e-13
4.22094e-13
5.54854e-13
4.61371e-13
3.83124e-13
5.31549e-13
5.7056e-13
3.82807e-13
2.97728e-13
3.20198e-13
2.89416e-13
4.06202e-13
3.67803e-13
3.12811e-13
2.65287e-13
1.1714e-13
6.95076e-14
8.29043e-15
2.40685e-13
6.67962e-16
1.72286e-13
2.50492e-13
2.88431e-13
4.22178e-13
4.221e-13
3.44096e-13
4.84723e-13
5.23602e-13
5.39262e-13
5.47365e-13
5.63411e-13
7.34768e-13
5.47164e-13
4.22064e-13
4.30102e-13
4.53925e-13
5.23037e-13
5.00244e-13
3.6795e-13
4.13431e-13
2.11403e-13
7.99062e-15
1.17163e-13
2.27012e-13
1.79487e-13
9.37457e-14
2.19431e-13
5.46714e-13
4.30004e-13
5.16043e-13
5.93936e-13
4.60926e-13
2.11424e-13
5.48788e-14
1.95411e-13
1.87686e-13
3.13798e-14
5.47577e-14
1.17249e-13
1.25008e-13
1.40114e-13
6.30767e-14
1.58167e-14
2.57899e-13
4.76793e-13
5.00477e-13
5.70653e-13
6.25163e-13
7.11508e-13
6.80183e-13
7.34765e-13
6.72386e-13
7.19271e-13
7.1148e-13
6.80209e-13
7.03574e-13
6.6415e-13
5.24026e-13
5.3153e-13
4.92353e-13
4.14542e-13
3.75347e-13
3.51759e-13
4.22447e-13
5.39402e-13
6.01183e-13
3.83599e-13
1.71967e-13
6.24531e-14
1.55633e-14
3.1091e-14
5.75132e-17
4.65462e-14
7.92557e-15
4.32055e-17
3.34897e-17
7.85184e-15
2.34185e-14
3.12273e-14
3.11648e-14
7.72884e-15
3.87803e-14
8.01008e-15
3.11422e-14
2.32926e-14
2.32941e-14
3.11961e-14
2.34955e-14
3.09725e-14
3.12729e-14
1.00835e-13
2.28857e-14
5.98692e-17
1.03297e-16
2.33829e-14
3.10911e-14
5.75132e-17
4.65462e-14
7.92557e-15
4.32055e-17
3.34897e-17
7.85184e-15
2.34185e-14
3.12273e-14
3.11923e-14
1.54364e-14
5.42255e-14
7.40721e-15
4.65782e-14
1.56235e-14
2.32254e-14
7.69531e-15
7.77835e-15
)
;

boundaryField
{
    sides
    {
        type            calculated;
        value           nonuniform List<scalar> 2(7.77835e-15 1.5737e-18);
    }
    empty
    {
        type            empty;
    }
}


// ************************************************************************* //
