/*--------------------------------*- C++ -*----------------------------------*\
  =========                 |
  \\      /  F ield         | OpenFOAM: The Open Source CFD Toolbox
   \\    /   O peration     | Website:  https://openfoam.org
    \\  /    A nd           | Version:  13
     \\/     M anipulation  |
\*---------------------------------------------------------------------------*/
FoamFile
{
    format      ascii;
    class       volScalarField;
    location    "0.003";
    object      p;
}
// * * * * * * * * * * * * * * * * * * * * * * * * * * * * * * * * * * * * * //

dimensions      [1 -1 -2 0 0 0 0];

internalField   nonuniform List<scalar> 
1000
(
100000
100000
100000
100000
100000
100000
100000
100000
100000
100000
100000
100000
100000
100000
100000
100000
100000
100000
100000
100000
100000
100000
100000
100000
100000
100000
100000
100000
100000
100000
100000
100000
100000
100000
100000
100000
100000
100000
100000
100000
100000
100000
100000
100000
100000
100000
100000
100000
100000
100000
100000
100000
100000
100000
100000
100000
100000
100000
100000
100000
100000
100000
100000
100000
100000
100000
100000
100000
100000
100000
100000
100000
100000
100000
100000
100000
100000
100000
100000
100000
100000
100000
100000
100000
100000
100000
100000
100000
100000
100000
100000
100000
100000
100000
100000
100000
100000
100000
100000
100000
100000
100000
100000
100000
100000
100000
100000
100000
100000
100000
100000
100000
100000
100000
100000
100000
100000
100000
100000
100000
100000
100000
100000
100000
100000
100000
100000
100000
100000
100000
100000
100000
100000
100000
100000
100000
100000
100000
100000
100000
100000
100000
100000
100000
100000
100000
100000
100000
100000
100000
100000
100000
100000
100000
100000
100000
100000
100000
100000
100000
100000
100000
100000
100000
100000
100000
100000
100000
100000
100000
100000
100000
100000
100000
100000
100000
100000
100000
100000
100000
100000
100000
100000
100000
100000
100000
100000
100000
100000
100000
100000
100000
100000
100000
100000
100000
100000
100000
100000
100000
100000
100000
100000
100000
100000
100000
100000
100000
100000
100000
100000
100000
100000
100000
100000
100000
100000
100000
100000
100000
100000
100000
100000
100000
100000
100000
100000
100000
100000
100000
100000
100000
100000
100000
100000
100000
100000
100000
100000
100000
100000
100000
100000
100000
100000
100000
100000
100000
100000
100000
100000
100000
100000
100000
100000
100000
100000
100000
100000
100000
100000
100000
100000
100000
100000
100000
100000
100000
100000
100000
100000
100000
100000
100000
100000
100000
100000
100000
100000
100000
100000
100000
100000
100000
100000
100000
100000
100000
100000
100000
100000
100000
100000
100000
100000
100000
100000
100000
100000
100000
100000
100000
100000
100000
100000
100000
100000
100000
100000
100000
100000
100000
100000
100000
100000
100000
100000
100000
100000
100000
100000
100000
100000
100000
100000
100000
100000
100000
100000
100000
100000
100000
100000
100000
100000
100000
100000
100000
100000
100000
100000
100000
100000
100000
100000
100000
100000
100000
100000
100000
100000
100000
100000
100000
100000
100000
100000
100000
100000
100000
100000
100000
100000
100000
100000
99999.9
99999.9
99999.7
99999.4
99998.9
99997.9
99995.9
99992.4
99986.2
99975.2
99956.6
99925.6
99876
99799.6
99687
99528.6
99316.6
99045.3
98712.2
98317.5
97863.5
97353.9
96793.8
96188.3
95543
94863
94153.3
93418.3
92662.2
91888.6
91100.6
90301.1
89492.4
88676.6
87855.6
87030.9
86203.9
85375.7
84547.5
83719.9
82894
82070.2
81249.2
80431.4
79617.4
78807.6
78002.2
77201.6
76406.1
75615.9
74831.2
74052.4
73279.5
72512.9
71752.7
70999.1
70252.3
69512.8
68780.6
68056.3
67340.2
66632.8
65935
65247.6
64571.8
63909.2
63262
62633
62025.8
61445.3
60897.3
60388.5
59926.5
59518.2
59169.3
58882.6
58657.5
58489.3
58370.3
58290.8
58240.4
58209.9
58189.4
58167.8
58130.5
58063.5
57948.3
57765.6
57501.8
57156.1
56739.3
56267.9
55757.8
55222
54669.7
54107.3
53539.5
52969.2
52398.8
51829.7
51263.2
50699.8
50140.4
49585.2
49034.7
48489
47948.4
47412.8
46882.5
46357.4
45837.6
45323.2
44814.1
44310.2
43811.7
43318.4
42830.3
42347.5
41869.8
41397.3
40929.8
40467.5
40010.2
39557.9
39110.7
38668.6
38231.5
37799.5
37372.8
36951.4
36535.6
36125.5
35722
35324.4
34935.3
34551.3
34173.8
33806.6
33453.8
33120.1
32811.1
32534
32296.4
32104.6
31960.3
31859.2
31792.3
31749.3
31722.2
31705.8
31697.1
31693.5
31692.7
31692.9
31693.2
31693.4
31693.5
31693.6
31693.7
31693.9
31694.2
31694.4
31694.5
31694.4
31694
31693.5
31693.1
31692.9
31692.9
31692.9
31693.1
31693.6
31694
31694.3
31694.5
31694.7
31694.9
31695
31695
31695.1
31695.1
31695.1
31695.1
31695.1
31695
31695
31694.9
31694.8
31694.8
31694.7
31694.6
31694.6
31694.5
31694.5
31694.4
31694.3
31694.3
31694.2
31694.1
31694.1
31694
31694
31693.9
31693.9
31693.8
31693.8
31693.7
31693.6
31693.6
31693.5
31693.5
31693.4
31693.4
31693.3
31693.3
31693.2
31693.2
31693.1
31693.1
31693
31693
31693.1
31693.2
31693.4
31693.8
31694.4
31695.3
31696.5
31697.8
31699.2
31700.4
31701
31700.7
31699.6
31697.6
31695.5
31693.8
31692.9
31692.4
31692.3
31692.3
31692.1
31692.2
31692.2
31692
31692.1
31692
31691.9
31691.9
31691.9
31691.8
31691.8
31691.7
31691.7
31691.7
31691.6
31691.6
31691.5
31691.4
31691.4
31691.3
31691.3
31691.2
31691.2
31691.1
31691.1
31691
31691
31690.9
31690.8
31690.8
31690.7
31690.6
31690.6
31690.5
31690.4
31690.3
31690.3
31690.2
31690.1
31690
31689.9
31689.8
31689.8
31689.6
31689.6
31689.4
31689.4
31689.1
31689.2
31688.6
31689
31687.9
31688.9
31686.8
31689.3
31684.6
31689.8
31678.7
31689.1
31661.4
31680.3
31608.8
31626.9
31433.2
31379.7
30760
30361
28298.6
26207.4
20359.8
13816.2
10662
10132.7
10045.2
10031.2
10028.9
10028.6
10028.5
10028.5
10028.5
10028.5
10028.5
10028.5
10028.5
10028.5
10028.5
10028.5
10028.5
10028.5
10028.5
10028.5
10028.5
10028.5
10028.5
10028.5
10028.5
10028.5
10028.5
10028.5
10028.5
10028.5
10028.5
10028.5
10028.5
10028.5
10028.5
10028.5
10028.5
10028.5
10028.5
10028.5
10028.5
10028.5
10028.5
10028.5
10028.5
10028.5
10028.5
10028.5
10028.5
10028.5
10028.5
10028.5
10028.5
10028.5
10028.5
10028.5
10028.5
10028.5
10028.5
10028.5
10028.5
10028.5
10028.5
10028.5
10028.5
10028.5
10028.5
10028.5
10028.5
10028.5
10028.5
10028.5
10028.5
10028.5
10028.5
10028.5
10028.5
10028.5
10028.5
10028.5
10028.5
10028.5
10028.5
10028.5
10028.5
10028.5
10028.5
10028.5
10028.5
10028.5
10028.5
10028.5
10028.5
10028.5
10028.5
10028.5
10028.5
10028.5
10028.5
10028.5
10028.5
10028.5
10028.5
10028.5
10028.5
10028.5
10028.5
10028.5
10028.5
10028.5
10028.5
10028.5
10028.5
10028.5
10028.5
10028.5
10028.5
10028.5
10028.5
10028.5
10028.5
10028.5
10028.5
10028.5
10028.5
10028.5
10028.5
10028.5
10028.5
10028.5
10028.5
10028.5
10028.5
10028.5
10028.5
10028.5
10028.5
10028.5
10028.5
10028.5
10028.5
10028.5
10028.5
10028.5
10028.5
10028.5
10028.5
10028.5
10028.5
10028.5
10028.5
10028.5
10028.5
10028.5
10028.5
10028.5
10028.5
10028.5
10028.5
10028.5
10028.5
10028.5
10028.5
10028.5
10028.5
10028.5
10028.5
10028.5
10028.5
10028.5
10028.5
10028.5
10028.5
10028.5
10028.5
10028.5
10028.5
10028.5
10028.5
10028.5
10028.5
10028.5
10028.5
10028.5
10028.5
10028.5
10028.5
10028.5
10028.5
10028.5
10028.5
10028.5
10028.5
10028.5
10028.5
10028.5
10028.5
10028.5
10028.5
10028.5
10028.5
10028.5
10028.5
10028.5
10028.5
10028.5
10028.5
10028.5
10028.5
10028.5
10028.5
10028.5
10028.5
10028.5
10028.5
10028.5
10028.5
10028.5
10028.5
10028.5
10028.5
10028.5
10028.5
10028.5
10028.5
10028.5
10028.5
10028.5
10028.5
10028.5
10028.5
10028.5
10028.5
10028.5
10028.5
10028.5
10028.5
10028.5
10028.5
10028.5
10028.5
10028.5
10028.5
10028.5
10028.5
10028.5
10028.5
10028.5
10028.5
10028.5
10028.5
10028.5
10028.5
10028.5
10028.5
10028.5
10028.5
10028.5
10028.5
10028.5
10028.5
10028.5
10028.5
10028.5
10028.5
10028.5
10028.5
10028.5
10028.5
10028.5
10028.5
10028.5
10028.5
10028.5
10028.5
10028.5
10028.5
10028.5
10028.5
10028.5
10028.5
10028.5
10028.5
10028.5
10028.5
10028.5
10028.5
10028.5
10028.5
10028.5
10028.5
10028.5
10028.5
10028.5
10028.5
10028.5
10028.5
10028.5
10028.5
10028.5
10028.5
10028.5
10028.5
10028.5
10028.5
10028.5
10028.5
10028.5
10028.5
10028.5
10028.5
10028.5
10028.5
10028.5
10028.5
10028.5
10028.5
10028.5
10028.5
10028.5
10028.5
10028.5
10028.5
)
;

boundaryField
{
    sides
    {
        type            zeroGradient;
    }
    empty
    {
        type            empty;
    }
}


// ************************************************************************* //
