/*--------------------------------*- C++ -*----------------------------------*\
  =========                 |
  \\      /  F ield         | OpenFOAM: The Open Source CFD Toolbox
   \\    /   O peration     | Website:  https://openfoam.org
    \\  /    A nd           | Version:  13
     \\/     M anipulation  |
\*---------------------------------------------------------------------------*/
FoamFile
{
    format      ascii;
    class       surfaceScalarField;
    location    "0.003";
    object      phi;
}
// * * * * * * * * * * * * * * * * * * * * * * * * * * * * * * * * * * * * * //

dimensions      [1 0 -1 0 0 0 0];

internalField   nonuniform List<scalar> 
999
(
0
0
4.54747e-13
2.27374e-13
0
0
-3.41061e-13
-3.41061e-13
0
2.27374e-13
1.13687e-13
1.13687e-13
1.13687e-13
-2.27374e-13
-2.27374e-13
0
0
-1.13687e-13
1.13687e-13
4.54747e-13
3.41061e-13
-2.27374e-13
-3.41061e-13
0
0
0
0
4.54747e-13
2.27374e-13
0
0
-3.41061e-13
-3.41061e-13
0
2.27374e-13
1.13687e-13
1.13687e-13
1.13687e-13
-2.27374e-13
-2.27374e-13
0
0
-1.13687e-13
1.13687e-13
4.54747e-13
3.41061e-13
-2.27374e-13
-4.54747e-13
0
5.68434e-13
6.82121e-13
6.82121e-13
6.82121e-13
6.82121e-13
5.68434e-13
1.13687e-13
0
4.54747e-13
3.41061e-13
3.41061e-13
4.54747e-13
3.41061e-13
0
0
3.41061e-13
3.41061e-13
3.41061e-13
6.82121e-13
1.13687e-12
1.47793e-12
1.47793e-12
4.54747e-13
-1.13687e-13
1.13687e-13
4.54747e-13
1.02318e-12
7.95808e-13
4.54747e-13
-1.13687e-13
0
1.13687e-13
-3.41061e-13
-1.13687e-13
2.27374e-13
2.27374e-13
4.54747e-13
4.54747e-13
2.27374e-13
2.27374e-13
3.41061e-13
4.54747e-13
3.41061e-13
3.41061e-13
3.41061e-13
1.13687e-13
1.13687e-13
0
-5.68434e-13
-6.82121e-13
-7.95808e-13
-6.82121e-13
-3.41061e-13
1.13687e-13
1.13687e-13
-3.41061e-13
-4.54747e-13
-2.27374e-13
-2.27374e-13
-2.27374e-13
-2.27374e-13
-3.41061e-13
-6.82121e-13
-6.82121e-13
-6.82121e-13
-4.54747e-13
-9.09495e-13
-7.95808e-13
-7.95808e-13
-9.09495e-13
-9.09495e-13
-7.95808e-13
-7.95808e-13
-7.95808e-13
-4.54747e-13
-4.54747e-13
-5.68434e-13
-5.68434e-13
-4.54747e-13
-4.54747e-13
-4.54747e-13
-2.27374e-13
0
0
0
0
3.41061e-13
3.41061e-13
4.54747e-13
2.27374e-13
2.27374e-13
4.54747e-13
4.54747e-13
4.54747e-13
4.54747e-13
4.54747e-13
5.68434e-13
5.68434e-13
5.68434e-13
5.68434e-13
5.68434e-13
4.54747e-13
3.41061e-13
4.54747e-13
4.54747e-13
4.54747e-13
3.41061e-13
3.41061e-13
-1.13687e-13
-1.13687e-13
-2.27374e-13
0
0
0
1.13687e-13
4.54747e-13
4.54747e-13
4.54747e-13
4.54747e-13
4.54747e-13
4.54747e-13
5.68434e-13
5.68434e-13
5.68434e-13
5.68434e-13
5.68434e-13
4.54747e-13
3.41061e-13
4.54747e-13
4.54747e-13
1.13687e-13
0
2.27374e-13
1.13687e-13
-3.41061e-13
-3.41061e-13
0
0
0
1.13687e-13
1.13687e-13
0
0
-4.54747e-13
-3.41061e-13
-5.68434e-13
-1.36424e-12
-1.59162e-12
-1.25056e-12
-1.36424e-12
-6.82121e-13
1.13687e-13
3.41061e-13
4.54747e-13
3.41061e-13
2.27374e-13
1.13687e-13
-2.27374e-13
-4.54747e-13
-2.27374e-13
-4.54747e-13
-2.27374e-13
-2.27374e-13
-2.27374e-13
-2.27374e-13
-3.41061e-13
-3.41061e-13
-3.41061e-13
-4.54747e-13
-4.54747e-13
-1.02318e-12
-1.59162e-12
-2.04636e-12
-1.7053e-12
-1.7053e-12
-1.59162e-12
-1.36424e-12
-1.25056e-12
-6.82121e-13
-7.95808e-13
-6.82121e-13
-6.82121e-13
-2.27374e-13
-3.41061e-13
-4.54747e-13
-1.36424e-12
-6.82121e-13
-9.09495e-13
-3.41061e-13
-1.02318e-12
-3.41061e-13
-6.82121e-13
-3.41061e-13
-7.95808e-13
-2.27374e-13
-5.68434e-13
-1.13687e-13
-5.68434e-13
-7.95808e-13
-6.82121e-13
-1.13687e-13
5.68434e-13
6.82121e-13
9.09495e-13
9.09495e-13
1.25056e-12
7.95808e-13
1.59162e-12
1.13687e-12
1.81899e-12
1.59162e-12
1.7053e-12
1.7053e-12
2.16005e-12
2.27374e-12
2.38742e-12
1.81899e-12
1.59162e-12
1.25056e-12
1.47793e-12
1.25056e-12
9.09495e-13
5.68434e-13
7.95808e-13
3.41061e-13
1.02318e-12
1.59162e-12
9.09495e-13
7.95808e-13
6.82121e-13
7.95808e-13
7.95808e-13
1.25056e-12
9.09495e-13
1.13687e-12
1.36424e-12
1.59162e-12
1.25056e-12
1.93268e-12
1.47793e-12
2.38742e-12
1.93268e-12
3.06954e-12
2.50111e-12
3.18323e-12
3.06954e-12
3.86535e-12
3.18323e-12
3.86535e-12
3.29692e-12
3.52429e-12
3.86535e-12
3.06954e-12
2.95586e-12
2.50111e-12
2.72848e-12
3.06954e-12
2.84217e-12
2.6148e-12
3.18323e-12
2.95586e-12
3.06954e-12
1.93268e-12
2.50111e-12
2.50111e-12
2.16005e-12
1.59162e-12
1.47793e-12
1.59162e-12
1.25056e-12
1.25056e-12
7.95808e-13
5.68434e-13
4.54747e-13
2.27374e-13
3.41061e-13
6.82121e-13
6.82121e-13
4.54747e-13
1.13687e-13
1.25056e-12
1.93268e-12
2.16005e-12
1.36424e-12
7.95808e-13
0
-4.54747e-13
-7.95808e-13
-1.02318e-12
-1.02318e-12
-2.27374e-13
3.41061e-13
1.59162e-12
5.22959e-12
1.39835e-11
3.46745e-11
8.29914e-11
1.98384e-10
4.83737e-10
1.16961e-09
2.81739e-09
6.73879e-09
1.59968e-08
3.76523e-08
8.7837e-08
2.03048e-07
4.64983e-07
1.05462e-06
2.3685e-06
5.26573e-06
1.15861e-05
2.52221e-05
5.4307e-05
0.000115615
0.000243277
0.000505752
0.00103832
0.00210413
0.00420651
0.00829109
0.0161005
0.0307795
0.0578725
0.106906
0.193765
0.34403
0.597141
1.01061
1.66234
2.64795
4.0709
6.02691
8.58876
11.7976
15.6624
20.1643
25.2641
30.9088
37.0384
43.5903
50.5029
57.718
65.1819
72.8462
80.6678
88.6088
96.6361
104.721
112.839
120.968
129.09
137.19
145.254
153.27
161.228
169.121
176.94
184.679
192.334
199.899
207.37
214.745
222.019
229.192
236.26
243.222
250.076
256.82
263.453
269.975
276.383
282.677
288.854
294.915
300.855
306.675
312.37
317.937
323.371
328.665
333.812
338.799
343.611
348.226
352.619
356.755
360.594
364.09
367.198
369.88
372.11
373.888
375.239
376.211
376.873
377.296
377.548
377.697
377.83
378.031
378.39
379.018
380.05
381.607
383.732
386.372
389.403
392.693
396.129
399.628
403.134
406.608
410.022
413.36
416.61
419.765
422.818
425.768
428.611
431.348
433.978
436.502
438.92
441.233
443.442
445.55
447.556
449.463
451.272
452.986
454.604
456.13
457.565
458.911
460.168
461.339
462.426
463.43
464.352
465.195
465.959
466.646
467.258
467.797
468.263
468.658
468.985
469.244
469.438
469.569
469.639
469.65
469.605
469.51
469.37
469.195
468.998
468.796
468.605
468.441
468.314
468.224
468.163
468.124
468.1
468.086
468.078
468.075
468.073
468.072
468.071
468.071
468.07
468.069
468.068
468.067
468.066
468.065
468.064
468.063
468.063
468.062
468.062
468.061
468.06
468.059
468.058
468.057
468.055
468.054
468.053
468.052
468.05
468.049
468.048
468.047
468.046
468.045
468.044
468.043
468.041
468.04
468.039
468.038
468.037
468.035
468.034
468.033
468.031
468.03
468.029
468.027
468.026
468.024
468.023
468.021
468.02
468.018
468.017
468.015
468.013
468.01
468.007
468.003
467.997
467.987
467.972
467.946
467.904
467.835
467.723
467.543
467.262
466.827
466.17
465.199
463.793
461.806
459.067
455.387
450.577
444.468
436.945
427.975
417.641
406.164
393.91
381.374
369.148
357.861
348.091
340.251
334.465
330.529
328.034
326.538
325.679
325.209
324.964
324.841
324.786
324.766
324.758
324.756
324.757
324.761
324.77
324.781
324.791
324.799
324.803
324.806
324.807
324.808
324.808
324.808
324.807
324.806
324.805
324.804
324.802
324.801
324.799
324.798
324.796
324.794
324.792
324.791
324.789
324.787
324.785
324.784
324.782
324.78
324.778
324.776
324.774
324.773
324.771
324.769
324.767
324.765
324.762
324.76
324.757
324.755
324.751
324.749
324.742
324.742
324.732
324.734
324.708
324.71
324.638
324.616
324.403
324.257
323.605
322.772
320.38
316.905
307.588
293.299
261.106
201.809
100.887
19.4916
3.36164
0.543894
0.0870425
0.0138881
0.00221384
0.000352812
5.62226e-05
8.95919e-06
1.42765e-06
2.27496e-07
3.62513e-08
5.7764e-09
9.20281e-10
1.46301e-10
2.305e-11
3.2685e-12
8.52651e-14
-4.12115e-13
-5.11591e-13
-5.40012e-13
-6.39488e-13
-6.82121e-13
-7.95808e-13
-7.67386e-13
-7.53175e-13
-7.10543e-13
-7.24754e-13
-6.96332e-13
-6.53699e-13
-6.53699e-13
-6.96332e-13
-6.25278e-13
-5.68434e-13
-5.54223e-13
-5.82645e-13
-5.82645e-13
-5.54223e-13
-5.54223e-13
-5.40012e-13
-4.83169e-13
-6.11067e-13
-5.82645e-13
-6.39488e-13
-6.39488e-13
-5.82645e-13
-5.40012e-13
-5.11591e-13
-4.40536e-13
-3.83693e-13
-3.97904e-13
-3.41061e-13
-2.70006e-13
-8.52651e-14
-4.26326e-14
-4.26326e-14
-4.26326e-14
-2.84217e-14
-1.13687e-13
-8.52651e-14
0
-2.84217e-14
-1.42109e-13
-7.10543e-14
-8.52651e-14
-2.84217e-14
-1.27898e-13
-1.42109e-13
-1.42109e-13
-1.27898e-13
-1.42109e-13
-1.42109e-13
-1.7053e-13
-1.27898e-13
-1.56319e-13
-1.84741e-13
-1.13687e-13
-5.68434e-14
1.27898e-13
1.7053e-13
1.27898e-13
7.10543e-14
5.68434e-14
1.42109e-14
9.9476e-14
2.27374e-13
3.12639e-13
2.55795e-13
1.98952e-13
5.68434e-14
5.68434e-14
-4.26326e-14
-1.42109e-14
-5.68434e-14
-4.26326e-14
-9.9476e-14
-2.84217e-14
-2.84217e-14
2.84217e-14
9.9476e-14
5.68434e-14
1.84741e-13
1.27898e-13
1.7053e-13
1.27898e-13
9.9476e-14
1.42109e-14
1.13687e-13
8.52651e-14
9.9476e-14
9.9476e-14
7.10543e-14
-1.42109e-14
0
-4.26326e-14
-2.84217e-14
-1.13687e-13
-4.26326e-14
-1.27898e-13
-8.52651e-14
-1.42109e-13
-5.68434e-14
-8.52651e-14
-8.52651e-14
-2.84217e-14
-8.52651e-14
4.26326e-14
2.84217e-14
7.10543e-14
1.13687e-13
1.98952e-13
1.84741e-13
2.84217e-13
2.27374e-13
1.98952e-13
1.27898e-13
-4.26326e-14
-2.13163e-13
-1.13687e-13
-9.9476e-14
0
1.42109e-14
1.42109e-14
4.26326e-14
1.13687e-13
1.27898e-13
1.84741e-13
4.26326e-14
2.84217e-14
1.42109e-14
1.42109e-14
1.27898e-13
1.27898e-13
1.7053e-13
1.84741e-13
2.98428e-13
2.55795e-13
2.98428e-13
2.55795e-13
2.98428e-13
3.12639e-13
3.12639e-13
2.41585e-13
2.13163e-13
1.42109e-13
1.56319e-13
1.13687e-13
9.9476e-14
1.27898e-13
2.84217e-13
2.98428e-13
2.98428e-13
1.84741e-13
2.13163e-13
2.70006e-13
2.55795e-13
2.41585e-13
2.55795e-13
2.55795e-13
2.13163e-13
2.55795e-13
8.52651e-14
1.42109e-13
2.41585e-13
2.55795e-13
2.41585e-13
1.98952e-13
1.84741e-13
1.42109e-13
9.9476e-14
9.9476e-14
1.42109e-13
2.55795e-13
2.55795e-13
1.98952e-13
2.13163e-13
2.55795e-13
1.98952e-13
1.56319e-13
1.42109e-13
1.42109e-13
1.7053e-13
1.98952e-13
1.56319e-13
1.42109e-13
1.13687e-13
-1.42109e-14
0
4.26326e-14
7.10543e-14
-7.10543e-14
-8.52651e-14
-1.7053e-13
-1.27898e-13
-2.55795e-13
-1.56319e-13
-1.84741e-13
-2.27374e-13
-2.70006e-13
-2.27374e-13
-2.84217e-13
-2.84217e-13
-3.55271e-13
-1.98952e-13
-2.55795e-13
-1.98952e-13
-2.27374e-13
-1.84741e-13
-2.70006e-13
-1.56319e-13
-1.7053e-13
-4.26326e-14
0
1.27898e-13
9.9476e-14
5.68434e-14
8.52651e-14
1.98952e-13
2.13163e-13
2.13163e-13
2.70006e-13
2.55795e-13
1.42109e-13
2.84217e-14
8.52651e-14
8.52651e-14
4.26326e-14
1.42109e-14
1.42109e-14
5.68434e-14
5.68434e-14
5.68434e-14
1.42109e-14
4.26326e-14
1.7053e-13
2.41585e-13
2.41585e-13
2.98428e-13
3.2685e-13
3.2685e-13
3.2685e-13
3.2685e-13
3.2685e-13
3.41061e-13
3.2685e-13
2.84217e-13
3.2685e-13
2.84217e-13
2.27374e-13
2.55795e-13
1.98952e-13
2.27374e-13
1.7053e-13
1.84741e-13
2.27374e-13
2.84217e-13
2.55795e-13
1.13687e-13
8.52651e-14
0
-1.42109e-14
-1.42109e-14
1.42109e-14
1.42109e-14
0
1.42109e-14
-1.42109e-14
0
-1.42109e-14
-2.84217e-14
-1.42109e-14
4.26326e-14
1.42109e-14
1.42109e-14
2.84217e-14
-1.42109e-14
-1.42109e-14
-1.42109e-14
-1.42109e-14
-1.42109e-14
4.26326e-14
2.84217e-14
0
1.42109e-14
-1.42109e-14
-1.42109e-14
-1.42109e-14
1.42109e-14
1.42109e-14
0
1.42109e-14
-1.42109e-14
0
-1.42109e-14
-2.84217e-14
-1.42109e-14
4.26326e-14
1.42109e-14
1.42109e-14
4.26326e-14
-1.42109e-14
0
0
)
;

boundaryField
{
    sides
    {
        type            calculated;
        value           uniform 0;
    }
    empty
    {
        type            empty;
    }
}


// ************************************************************************* //
