/*--------------------------------*- C++ -*----------------------------------*\
  =========                 |
  \\      /  F ield         | OpenFOAM: The Open Source CFD Toolbox
   \\    /   O peration     | Website:  https://openfoam.org
    \\  /    A nd           | Version:  13
     \\/     M anipulation  |
\*---------------------------------------------------------------------------*/
FoamFile
{
    format      ascii;
    class       volVectorField;
    location    "0.003";
    object      U;
}
// * * * * * * * * * * * * * * * * * * * * * * * * * * * * * * * * * * * * * //

dimensions      [0 1 -1 0 0 0 0];

internalField   nonuniform List<vector> 
1000
(
(-1.5737e-18 0 0)
(-7.26566e-15 0 0)
(5.84668e-14 0 0)
(1.24152e-13 0 0)
(1.46658e-14 0 0)
(-1.38945e-17 0 0)
(-4.3859e-14 0 0)
(-1.02256e-13 0 0)
(-4.38488e-14 0 0)
(1.46083e-14 0 0)
(6.57118e-14 0 0)
(-7.23888e-15 0 0)
(5.83838e-14 0 0)
(-4.38174e-14 0 0)
(-7.30373e-14 0 0)
(-1.46383e-14 0 0)
(-1.5689e-17 0 0)
(-7.31312e-15 0 0)
(-2.91629e-14 0 0)
(8.03405e-14 0 0)
(8.76598e-14 0 0)
(2.91945e-14 0 0)
(-1.09521e-13 0 0)
(-5.11606e-14 0 0)
(-3.10033e-17 0 0)
(-3.41789e-18 0 0)
(-7.26567e-15 0 0)
(5.84668e-14 0 0)
(1.24152e-13 0 0)
(1.46658e-14 0 0)
(-1.38945e-17 0 0)
(-4.3859e-14 0 0)
(-1.02256e-13 0 0)
(-4.38488e-14 0 0)
(1.46083e-14 0 0)
(6.57118e-14 0 0)
(-7.23888e-15 0 0)
(5.83838e-14 0 0)
(-4.38174e-14 0 0)
(-7.30373e-14 0 0)
(-1.46383e-14 0 0)
(-1.5689e-17 0 0)
(-7.31312e-15 0 0)
(-2.91629e-14 0 0)
(8.03405e-14 0 0)
(8.76598e-14 0 0)
(2.91945e-14 0 0)
(-1.09521e-13 0 0)
(-4.38512e-14 0 0)
(5.11338e-14 0 0)
(1.38867e-13 0 0)
(1.46218e-13 0 0)
(1.53481e-13 0 0)
(1.46086e-13 0 0)
(1.60842e-13 0 0)
(7.30805e-14 0 0)
(7.30268e-15 0 0)
(5.12244e-14 0 0)
(1.24255e-13 0 0)
(8.77017e-14 0 0)
(1.16877e-13 0 0)
(1.09684e-13 0 0)
(6.57182e-14 0 0)
(-2.18888e-14 0 0)
(3.65863e-14 0 0)
(1.16917e-13 0 0)
(8.04026e-14 0 0)
(1.09644e-13 0 0)
(2.48525e-13 0 0)
(3.28869e-13 0 0)
(3.72712e-13 0 0)
(2.55775e-13 0 0)
(1.46995e-14 0 0)
(-2.19237e-14 0 0)
(8.0399e-14 0 0)
(1.60794e-13 0 0)
(2.1197e-13 0 0)
(1.24254e-13 0 0)
(4.38104e-14 0 0)
(-5.8477e-14 0 0)
(2.92233e-14 0 0)
(-1.45734e-14 0 0)
(-1.09603e-13 0 0)
(3.65152e-14 0 0)
(2.19458e-14 0 0)
(9.49829e-14 0 0)
(1.24244e-13 0 0)
(8.0385e-14 0 0)
(3.65661e-14 0 0)
(2.19812e-14 0 0)
(1.16897e-13 0 0)
(1.09606e-13 0 0)
(4.39058e-14 0 0)
(9.49731e-14 0 0)
(5.84655e-14 0 0)
(2.92646e-14 0 0)
(4.37788e-14 0 0)
(-1.09598e-13 0 0)
(-1.46139e-13 0 0)
(-1.60817e-13 0 0)
(-2.26567e-13 0 0)
(-1.60765e-13 0 0)
(-2.92828e-14 0 0)
(2.19374e-14 0 0)
(-2.92318e-14 0 0)
(-1.09606e-13 0 0)
(-5.11858e-14 0 0)
(-3.65271e-14 0 0)
(-3.6554e-14 0 0)
(-3.65566e-14 0 0)
(-8.76713e-14 0 0)
(-1.38916e-13 0 0)
(-1.46181e-13 0 0)
(-1.75377e-13 0 0)
(-1.46192e-13 0 0)
(-1.68125e-13 0 0)
(-1.97296e-13 0 0)
(-1.7542e-13 0 0)
(-2.19314e-13 0 0)
(-2.04647e-13 0 0)
(-2.04634e-13 0 0)
(-1.60825e-13 0 0)
(-2.11908e-13 0 0)
(-1.46235e-13 0 0)
(-1.09583e-13 0 0)
(-9.50778e-14 0 0)
(-1.60737e-13 0 0)
(-1.24331e-13 0 0)
(-1.16872e-13 0 0)
(-1.24249e-13 0 0)
(-8.03848e-14 0 0)
(-3.65487e-14 0 0)
(-1.34784e-17 0 0)
(1.46076e-14 0 0)
(-2.99795e-18 0 0)
(1.4637e-14 0 0)
(8.03577e-14 0 0)
(1.31568e-13 0 0)
(1.02367e-13 0 0)
(4.3843e-14 0 0)
(8.76754e-14 0 0)
(1.09687e-13 0 0)
(1.02325e-13 0 0)
(8.03441e-14 0 0)
(1.31568e-13 0 0)
(1.1697e-13 0 0)
(1.60752e-13 0 0)
(1.17002e-13 0 0)
(1.82667e-13 0 0)
(1.31614e-13 0 0)
(1.89961e-13 0 0)
(5.85419e-14 0 0)
(1.09563e-13 0 0)
(9.50787e-14 0 0)
(1.4616e-13 0 0)
(8.04217e-14 0 0)
(9.50033e-14 0 0)
(2.92356e-14 0 0)
(2.191e-14 0 0)
(-5.11446e-14 0 0)
(-2.19218e-14 0 0)
(-2.71914e-17 0 0)
(2.19256e-14 0 0)
(1.46601e-14 0 0)
(6.57835e-14 0 0)
(1.46133e-13 0 0)
(9.50482e-14 0 0)
(1.02318e-13 0 0)
(8.03965e-14 0 0)
(1.31546e-13 0 0)
(1.09666e-13 0 0)
(1.60744e-13 0 0)
(1.09695e-13 0 0)
(1.75356e-13 0 0)
(1.24303e-13 0 0)
(1.82637e-13 0 0)
(5.1261e-14 0 0)
(1.38829e-13 0 0)
(1.38842e-13 0 0)
(8.0393e-14 0 0)
(-7.26967e-15 0 0)
(2.19304e-14 0 0)
(3.65263e-14 0 0)
(-2.92594e-14 0 0)
(-8.767e-14 0 0)
(-2.19084e-14 0 0)
(7.2702e-15 0 0)
(1.45979e-14 0 0)
(2.19794e-14 0 0)
(4.38311e-14 0 0)
(-7.28287e-15 0 0)
(1.45896e-14 0 0)
(-5.11377e-14 0 0)
(-1.38859e-13 0 0)
(-6.58449e-14 0 0)
(-2.48497e-13 0 0)
(-3.87333e-13 0 0)
(-3.36206e-13 0 0)
(-3.5085e-13 0 0)
(-2.92318e-13 0 0)
(-3.65609e-14 0 0)
(5.11631e-14 0 0)
(1.16911e-13 0 0)
(1.1695e-13 0 0)
(6.57892e-14 0 0)
(8.03917e-14 0 0)
(-3.65172e-14 0 0)
(-1.02326e-13 0 0)
(-8.04504e-14 0 0)
(-8.7663e-14 0 0)
(-8.03759e-14 0 0)
(-4.38642e-14 0 0)
(-3.66163e-14 0 0)
(-5.83983e-14 0 0)
(-4.38739e-14 0 0)
(-1.16924e-13 0 0)
(-8.0443e-14 0 0)
(-1.09598e-13 0 0)
(-8.77295e-14 0 0)
(-1.46235e-13 0 0)
(-2.92345e-13 0 0)
(-5.33521e-13 0 0)
(-4.7506e-13 0 0)
(-3.80099e-13 0 0)
(-4.38464e-13 0 0)
(-2.99702e-13 0 0)
(-3.43504e-13 0 0)
(-2.48526e-13 0 0)
(-1.16997e-13 0 0)
(-1.97337e-13 0 0)
(-2.55747e-13 0 0)
(-1.02327e-13 0 0)
(-7.31315e-14 0 0)
(-8.04024e-14 0 0)
(-3.1424e-13 0 0)
(-2.63109e-13 0 0)
(-2.04649e-13 0 0)
(-1.8275e-13 0 0)
(-1.68072e-13 0 0)
(-1.53499e-13 0 0)
(-1.82691e-13 0 0)
(-1.53524e-13 0 0)
(-5.85093e-14 0 0)
(-2.0457e-13 0 0)
(-5.12565e-14 0 0)
(-1.16923e-13 0 0)
(-1.24214e-13 0 0)
(-1.97314e-13 0 0)
(-1.24333e-13 0 0)
(-2.48352e-13 0 0)
(9.49338e-14 0 0)
(1.82639e-13 0 0)
(2.19291e-13 0 0)
(2.33857e-13 0 0)
(2.70485e-13 0 0)
(2.19228e-13 0 0)
(3.65484e-13 0 0)
(3.21587e-13 0 0)
(3.28892e-13 0 0)
(4.09328e-13 0 0)
(4.38505e-13 0 0)
(3.8009e-13 0 0)
(4.75092e-13 0 0)
(5.48181e-13 0 0)
(6.06619e-13 0 0)
(5.40863e-13 0 0)
(4.09305e-13 0 0)
(3.65385e-13 0 0)
(3.14341e-13 0 0)
(3.14243e-13 0 0)
(2.41249e-13 0 0)
(2.19211e-13 0 0)
(1.53538e-13 0 0)
(1.46133e-13 0 0)
(1.60854e-13 0 0)
(3.43498e-13 0 0)
(2.85019e-13 0 0)
(1.75433e-13 0 0)
(2.26617e-13 0 0)
(1.6077e-13 0 0)
(1.608e-13 0 0)
(2.19272e-13 0 0)
(2.85003e-13 0 0)
(2.19269e-13 0 0)
(3.14354e-13 0 0)
(4.01954e-13 0 0)
(3.28916e-13 0 0)
(3.94702e-13 0 0)
(4.38513e-13 0 0)
(4.89707e-13 0 0)
(5.26236e-13 0 0)
(6.21271e-13 0 0)
(7.3822e-13 0 0)
(6.79705e-13 0 0)
(7.74757e-13 0 0)
(8.84396e-13 0 0)
(8.62435e-13 0 0)
(8.99023e-13 0 0)
(8.40527e-13 0 0)
(8.25935e-13 0 0)
(9.35439e-13 0 0)
(8.69761e-13 0 0)
(7.45529e-13 0 0)
(7.01678e-13 0 0)
(6.57831e-13 0 0)
(6.94305e-13 0 0)
(7.67423e-13 0 0)
(6.6516e-13 0 0)
(7.16262e-13 0 0)
(7.74742e-13 0 0)
(8.33163e-13 0 0)
(6.06699e-13 0 0)
(5.04394e-13 0 0)
(6.79626e-13 0 0)
(5.77429e-13 0 0)
(4.75062e-13 0 0)
(3.8742e-13 0 0)
(3.94624e-13 0 0)
(3.58139e-13 0 0)
(2.55872e-13 0 0)
(2.55794e-13 0 0)
(1.82736e-13 0 0)
(1.82671e-13 0 0)
(8.03842e-14 0 0)
(-7.30074e-14 0 0)
(1.68077e-13 0 0)
(2.41192e-13 0 0)
(1.68092e-13 0 0)
(1.46348e-14 0 0)
(1.46226e-13 0 0)
(3.72717e-13 0 0)
(4.89675e-13 0 0)
(3.87407e-13 0 0)
(2.99666e-13 0 0)
(1.38848e-13 0 0)
(-3.65372e-14 0 0)
(-1.53448e-13 0 0)
(-2.26545e-13 0 0)
(-2.55885e-13 0 0)
(-2.33896e-13 0 0)
(1.45749e-14 0 0)
(1.75474e-13 0 0)
(8.18611e-13 0 0)
(2.28041e-12 0 0)
(5.58405e-12 0 0)
(1.40478e-11 0 0)
(3.22984e-11 0 0)
(7.98433e-11 0 0)
(1.92555e-10 0 0)
(4.65926e-10 0 0)
(1.11865e-09 0 0)
(2.66717e-09 0 0)
(6.30763e-09 0 0)
(1.47874e-08 0 0)
(3.43522e-08 0 0)
(7.90732e-08 0 0)
(1.80271e-07 0 0)
(4.07014e-07 0 0)
(9.0977e-07 0 0)
(2.01281e-06 0 0)
(4.40644e-06 0 0)
(9.54251e-06 0 0)
(2.04354e-05 0 0)
(4.32608e-05 0 0)
(9.04961e-05 0 0)
(0.000186984 0 0)
(0.000381428 0 0)
(0.000767767 0 0)
(0.00152405 0 0)
(0.00298149 0 0)
(0.00574389 0 0)
(0.0108878 0 0)
(0.0202857 0 0)
(0.0371051 0 0)
(0.0665316 0 0)
(0.116727 0 0)
(0.199912 0 0)
(0.333241 0 0)
(0.538816 0 0)
(0.842149 0 0)
(1.26899 0 0)
(1.84149 0 0)
(2.57535 0 0)
(3.47873 0 0)
(4.55274 0 0)
(5.79278 0 0)
(7.19015 0 0)
(8.73361 0 0)
(10.4105 0 0)
(12.2079 0 0)
(14.1131 0 0)
(16.1141 0 0)
(18.1998 0 0)
(20.3602 0 0)
(22.5864 0 0)
(24.8705 0 0)
(27.2054 0 0)
(29.5851 0 0)
(32.0044 0 0)
(34.4585 0 0)
(36.9434 0 0)
(39.4555 0 0)
(41.9919 0 0)
(44.5498 0 0)
(47.1268 0 0)
(49.7209 0 0)
(52.3302 0 0)
(54.9532 0 0)
(57.5882 0 0)
(60.2341 0 0)
(62.8896 0 0)
(65.5536 0 0)
(68.2253 0 0)
(70.9036 0 0)
(73.5876 0 0)
(76.2766 0 0)
(78.9697 0 0)
(81.6661 0 0)
(84.365 0 0)
(87.0655 0 0)
(89.7667 0 0)
(92.4675 0 0)
(95.1669 0 0)
(97.8633 0 0)
(100.555 0 0)
(103.241 0 0)
(105.918 0 0)
(108.582 0 0)
(111.231 0 0)
(113.858 0 0)
(116.457 0 0)
(119.018 0 0)
(121.528 0 0)
(123.972 0 0)
(126.328 0 0)
(128.569 0 0)
(130.665 0 0)
(132.582 0 0)
(134.287 0 0)
(135.752 0 0)
(136.961 0 0)
(137.914 0 0)
(138.628 0 0)
(139.134 0 0)
(139.472 0 0)
(139.686 0 0)
(139.819 0 0)
(139.906 0 0)
(140.015 0 0)
(140.204 0 0)
(140.543 0 0)
(141.126 0 0)
(142.052 0 0)
(143.395 0 0)
(145.165 0 0)
(147.313 0 0)
(149.762 0 0)
(152.434 0 0)
(155.269 0 0)
(158.22 0 0)
(161.255 0 0)
(164.352 0 0)
(167.495 0 0)
(170.674 0 0)
(173.879 0 0)
(177.106 0 0)
(180.35 0 0)
(183.607 0 0)
(186.875 0 0)
(190.153 0 0)
(193.438 0 0)
(196.73 0 0)
(200.027 0 0)
(203.33 0 0)
(206.636 0 0)
(209.946 0 0)
(213.26 0 0)
(216.576 0 0)
(219.895 0 0)
(223.217 0 0)
(226.541 0 0)
(229.868 0 0)
(233.196 0 0)
(236.526 0 0)
(239.859 0 0)
(243.192 0 0)
(246.528 0 0)
(249.864 0 0)
(253.201 0 0)
(256.539 0 0)
(259.877 0 0)
(263.214 0 0)
(266.55 0 0)
(269.884 0 0)
(273.213 0 0)
(276.536 0 0)
(279.849 0 0)
(283.15 0 0)
(286.43 0 0)
(289.695 0 0)
(292.931 0 0)
(296.15 0 0)
(299.321 0 0)
(302.402 0 0)
(305.346 0 0)
(308.099 0 0)
(310.591 0 0)
(312.743 0 0)
(314.493 0 0)
(315.815 0 0)
(316.745 0 0)
(317.363 0 0)
(317.76 0 0)
(318.01 0 0)
(318.161 0 0)
(318.242 0 0)
(318.275 0 0)
(318.283 0 0)
(318.28 0 0)
(318.278 0 0)
(318.276 0 0)
(318.275 0 0)
(318.274 0 0)
(318.273 0 0)
(318.271 0 0)
(318.269 0 0)
(318.267 0 0)
(318.266 0 0)
(318.266 0 0)
(318.269 0 0)
(318.273 0 0)
(318.275 0 0)
(318.277 0 0)
(318.277 0 0)
(318.276 0 0)
(318.274 0 0)
(318.271 0 0)
(318.267 0 0)
(318.264 0 0)
(318.262 0 0)
(318.26 0 0)
(318.259 0 0)
(318.258 0 0)
(318.257 0 0)
(318.256 0 0)
(318.256 0 0)
(318.256 0 0)
(318.255 0 0)
(318.255 0 0)
(318.255 0 0)
(318.255 0 0)
(318.255 0 0)
(318.256 0 0)
(318.256 0 0)
(318.256 0 0)
(318.256 0 0)
(318.256 0 0)
(318.256 0 0)
(318.257 0 0)
(318.257 0 0)
(318.257 0 0)
(318.257 0 0)
(318.257 0 0)
(318.257 0 0)
(318.257 0 0)
(318.257 0 0)
(318.257 0 0)
(318.257 0 0)
(318.257 0 0)
(318.257 0 0)
(318.257 0 0)
(318.257 0 0)
(318.257 0 0)
(318.257 0 0)
(318.257 0 0)
(318.257 0 0)
(318.257 0 0)
(318.257 0 0)
(318.257 0 0)
(318.257 0 0)
(318.257 0 0)
(318.256 0 0)
(318.256 0 0)
(318.256 0 0)
(318.256 0 0)
(318.257 0 0)
(318.257 0 0)
(318.258 0 0)
(318.261 0 0)
(318.264 0 0)
(318.27 0 0)
(318.278 0 0)
(318.288 0 0)
(318.3 0 0)
(318.312 0 0)
(318.323 0 0)
(318.329 0 0)
(318.329 0 0)
(318.321 0 0)
(318.307 0 0)
(318.292 0 0)
(318.281 0 0)
(318.275 0 0)
(318.272 0 0)
(318.272 0 0)
(318.272 0 0)
(318.271 0 0)
(318.272 0 0)
(318.272 0 0)
(318.27 0 0)
(318.271 0 0)
(318.271 0 0)
(318.27 0 0)
(318.269 0 0)
(318.269 0 0)
(318.269 0 0)
(318.268 0 0)
(318.268 0 0)
(318.268 0 0)
(318.267 0 0)
(318.267 0 0)
(318.267 0 0)
(318.266 0 0)
(318.266 0 0)
(318.265 0 0)
(318.265 0 0)
(318.264 0 0)
(318.264 0 0)
(318.263 0 0)
(318.263 0 0)
(318.262 0 0)
(318.262 0 0)
(318.261 0 0)
(318.261 0 0)
(318.26 0 0)
(318.26 0 0)
(318.259 0 0)
(318.259 0 0)
(318.258 0 0)
(318.257 0 0)
(318.257 0 0)
(318.256 0 0)
(318.255 0 0)
(318.254 0 0)
(318.254 0 0)
(318.253 0 0)
(318.252 0 0)
(318.251 0 0)
(318.25 0 0)
(318.25 0 0)
(318.248 0 0)
(318.248 0 0)
(318.246 0 0)
(318.246 0 0)
(318.242 0 0)
(318.244 0 0)
(318.237 0 0)
(318.243 0 0)
(318.229 0 0)
(318.243 0 0)
(318.217 0 0)
(318.243 0 0)
(318.19 0 0)
(318.228 0 0)
(318.116 0 0)
(318.147 0 0)
(317.887 0 0)
(317.795 0 0)
(317.189 0 0)
(316.266 0 0)
(314.788 0 0)
(309.827 0 0)
(304.945 0 0)
(284.961 0 0)
(261.612 0 0)
(190.514 0 0)
(83.9058 0 0)
(15.4383 0 0)
(2.5753 0 0)
(0.412421 0 0)
(0.0657666 0 0)
(0.0104813 0 0)
(0.00167018 0 0)
(0.000266142 0 0)
(4.24097e-05 0 0)
(6.75798e-06 0 0)
(1.07688e-06 0 0)
(1.71602e-07 0 0)
(2.73434e-08 0 0)
(4.35702e-09 0 0)
(6.93702e-10 0 0)
(1.09773e-10 0 0)
(1.69664e-11 0 0)
(1.69751e-12 0 0)
(-6.72012e-13 0 0)
(-9.54994e-13 0 0)
(-1.19506e-12 0 0)
(-1.26651e-12 0 0)
(-1.35348e-12 0 0)
(-1.64125e-12 0 0)
(-1.73477e-12 0 0)
(-1.60298e-12 0 0)
(-1.59452e-12 0 0)
(-1.57908e-12 0 0)
(-1.50941e-12 0 0)
(-1.52395e-12 0 0)
(-1.40745e-12 0 0)
(-1.39197e-12 0 0)
(-1.42221e-12 0 0)
(-1.28221e-12 0 0)
(-1.23467e-12 0 0)
(-1.2588e-12 0 0)
(-1.20474e-12 0 0)
(-1.28189e-12 0 0)
(-1.13353e-12 0 0)
(-1.11818e-12 0 0)
(-1.16407e-12 0 0)
(-1.17302e-12 0 0)
(-1.4063e-12 0 0)
(-1.21224e-12 0 0)
(-1.33743e-12 0 0)
(-1.31323e-12 0 0)
(-1.14982e-12 0 0)
(-1.17227e-12 0 0)
(-1.04742e-12 0 0)
(-8.91149e-13 0 0)
(-8.20917e-13 0 0)
(-8.59446e-13 0 0)
(-4.92754e-13 0 0)
(-2.03958e-13 0 0)
(-1.55776e-13 0 0)
(-3.17944e-14 0 0)
(-1.17703e-13 0 0)
(-1.32091e-13 0 0)
(-1.59796e-14 0 0)
(-3.74536e-13 0 0)
(-9.35559e-14 0 0)
(1.6271e-13 0 0)
(-2.6532e-13 0 0)
(-1.80024e-13 0 0)
(-1.48452e-13 0 0)
(-2.02572e-13 0 0)
(-9.47173e-14 0 0)
(-4.13214e-13 0 0)
(-3.5961e-13 0 0)
(-2.89932e-13 0 0)
(-3.20177e-13 0 0)
(-2.04004e-13 0 0)
(-3.826e-13 0 0)
(-3.59411e-13 0 0)
(-2.581e-13 0 0)
(-3.91094e-13 0 0)
(-4.21371e-13 0 0)
(-1.7204e-13 0 0)
(1.63698e-13 0 0)
(3.20901e-13 0 0)
(4.75681e-13 0 0)
(1.17995e-13 0 0)
(8.64713e-14 0 0)
(8.577e-14 0 0)
(5.51383e-14 0 0)
(3.98369e-13 0 0)
(7.10954e-13 0 0)
(5.94298e-13 0 0)
(5.00109e-13 0 0)
(2.6527e-13 0 0)
(4.00247e-14 0 0)
(3.89764e-14 0 0)
(-6.2506e-14 0 0)
(-1.25018e-13 0 0)
(-1.2497e-13 0 0)
(-1.56393e-13 0 0)
(-1.02313e-13 0 0)
(-6.23102e-14 0 0)
(-5.44829e-14 0 0)
(1.95471e-13 0 0)
(1.56137e-13 0 0)
(2.50527e-13 0 0)
(3.43886e-13 0 0)
(2.96934e-13 0 0)
(3.36234e-13 0 0)
(2.65422e-13 0 0)
(1.95286e-13 0 0)
(-8.45958e-14 0 0)
(2.50222e-13 0 0)
(3.49854e-13 0 0)
(2.58592e-13 0 0)
(2.58095e-13 0 0)
(-1.57878e-14 0 0)
(-4.64281e-14 0 0)
(3.86337e-14 0 0)
(-8.54897e-14 0 0)
(-2.18876e-13 0 0)
(-1.48584e-13 0 0)
(-1.95628e-13 0 0)
(-2.02984e-13 0 0)
(-2.65622e-13 0 0)
(-2.43167e-13 0 0)
(-6.25264e-14 0 0)
(-2.34241e-13 0 0)
(-1.24667e-13 0 0)
(-1.33166e-13 0 0)
(-3.8816e-14 0 0)
(5.46136e-14 0 0)
(7.02125e-14 0 0)
(1.95767e-13 0 0)
(3.90106e-13 0 0)
(4.1425e-13 0 0)
(3.92223e-13 0 0)
(6.02123e-13 0 0)
(5.30574e-13 0 0)
(2.58172e-13 0 0)
(7.85609e-14 0 0)
(-2.1923e-13 0 0)
(-3.13095e-13 0 0)
(-1.72061e-13 0 0)
(-1.79188e-13 0 0)
(-1.57455e-14 0 0)
(1.01521e-13 0 0)
(4.67981e-14 0 0)
(1.64363e-13 0 0)
(3.04778e-13 0 0)
(4.1396e-13 0 0)
(2.58121e-13 0 0)
(4.6805e-14 0 0)
(3.17544e-14 0 0)
(2.33518e-14 0 0)
(1.32949e-13 0 0)
(2.7352e-13 0 0)
(2.89529e-13 0 0)
(3.98902e-13 0 0)
(6.24617e-13 0 0)
(6.25078e-13 0 0)
(4.38936e-13 0 0)
(5.55456e-13 0 0)
(7.41046e-13 0 0)
(6.18147e-13 0 0)
(6.56644e-13 0 0)
(6.32997e-13 0 0)
(4.3827e-13 0 0)
(3.82968e-13 0 0)
(2.81769e-13 0 0)
(3.20366e-13 0 0)
(2.65781e-13 0 0)
(1.95366e-13 0 0)
(4.53556e-13 0 0)
(6.33264e-13 0 0)
(6.79887e-13 0 0)
(5.08071e-13 0 0)
(4.06464e-13 0 0)
(4.69691e-13 0 0)
(5.70308e-13 0 0)
(5.23939e-13 0 0)
(5.62649e-13 0 0)
(5.55327e-13 0 0)
(5.23948e-13 0 0)
(5.85593e-13 0 0)
(3.59517e-13 0 0)
(1.33822e-13 0 0)
(4.22447e-13 0 0)
(5.77149e-13 0 0)
(4.69764e-13 0 0)
(4.92204e-13 0 0)
(4.29656e-13 0 0)
(3.68085e-13 0 0)
(2.50157e-13 0 0)
(1.40911e-13 0 0)
(2.65736e-13 0 0)
(4.22094e-13 0 0)
(5.54854e-13 0 0)
(4.61371e-13 0 0)
(3.83124e-13 0 0)
(5.31549e-13 0 0)
(5.7056e-13 0 0)
(3.82807e-13 0 0)
(2.97728e-13 0 0)
(3.20198e-13 0 0)
(2.89416e-13 0 0)
(4.06202e-13 0 0)
(3.67803e-13 0 0)
(3.12811e-13 0 0)
(2.65287e-13 0 0)
(1.1714e-13 0 0)
(-6.95076e-14 0 0)
(8.29043e-15 0 0)
(2.40685e-13 0 0)
(6.67962e-16 0 0)
(-1.72286e-13 0 0)
(-2.50492e-13 0 0)
(-2.88431e-13 0 0)
(-4.22178e-13 0 0)
(-4.221e-13 0 0)
(-3.44096e-13 0 0)
(-4.84723e-13 0 0)
(-5.23602e-13 0 0)
(-5.39262e-13 0 0)
(-5.47365e-13 0 0)
(-5.63411e-13 0 0)
(-7.34768e-13 0 0)
(-5.47164e-13 0 0)
(-4.22064e-13 0 0)
(-4.30102e-13 0 0)
(-4.53925e-13 0 0)
(-5.23037e-13 0 0)
(-5.00244e-13 0 0)
(-3.6795e-13 0 0)
(-4.13431e-13 0 0)
(-2.11403e-13 0 0)
(-7.99062e-15 0 0)
(1.17163e-13 0 0)
(2.27012e-13 0 0)
(1.79487e-13 0 0)
(9.37457e-14 0 0)
(2.19431e-13 0 0)
(5.46714e-13 0 0)
(4.30004e-13 0 0)
(5.16043e-13 0 0)
(5.93936e-13 0 0)
(4.60926e-13 0 0)
(2.11424e-13 0 0)
(5.48788e-14 0 0)
(1.95411e-13 0 0)
(1.87686e-13 0 0)
(3.13798e-14 0 0)
(5.47577e-14 0 0)
(1.17249e-13 0 0)
(1.25008e-13 0 0)
(1.40114e-13 0 0)
(6.30767e-14 0 0)
(1.58167e-14 0 0)
(2.57899e-13 0 0)
(4.76793e-13 0 0)
(5.00477e-13 0 0)
(5.70653e-13 0 0)
(6.25163e-13 0 0)
(7.11508e-13 0 0)
(6.80183e-13 0 0)
(7.34765e-13 0 0)
(6.72386e-13 0 0)
(7.19271e-13 0 0)
(7.1148e-13 0 0)
(6.80209e-13 0 0)
(7.03574e-13 0 0)
(6.6415e-13 0 0)
(5.24026e-13 0 0)
(5.3153e-13 0 0)
(4.92353e-13 0 0)
(4.14542e-13 0 0)
(3.75347e-13 0 0)
(3.51759e-13 0 0)
(4.22447e-13 0 0)
(5.39402e-13 0 0)
(6.01183e-13 0 0)
(3.83599e-13 0 0)
(1.71967e-13 0 0)
(6.24531e-14 0 0)
(-1.55633e-14 0 0)
(-3.1091e-14 0 0)
(5.75132e-17 0 0)
(4.65462e-14 0 0)
(7.92557e-15 0 0)
(4.32055e-17 0 0)
(-3.34897e-17 0 0)
(-7.85184e-15 0 0)
(-2.34185e-14 0 0)
(-3.12273e-14 0 0)
(-3.11648e-14 0 0)
(-7.72884e-15 0 0)
(3.87803e-14 0 0)
(8.01008e-15 0 0)
(3.11422e-14 0 0)
(2.32926e-14 0 0)
(-2.32941e-14 0 0)
(-3.11961e-14 0 0)
(-2.34955e-14 0 0)
(-3.09725e-14 0 0)
(3.12729e-14 0 0)
(1.00835e-13 0 0)
(-2.28857e-14 0 0)
(-5.98692e-17 0 0)
(-1.03297e-16 0 0)
(-2.33829e-14 0 0)
(-3.10911e-14 0 0)
(5.75132e-17 0 0)
(4.65462e-14 0 0)
(7.92557e-15 0 0)
(4.32055e-17 0 0)
(-3.34897e-17 0 0)
(-7.85184e-15 0 0)
(-2.34185e-14 0 0)
(-3.12273e-14 0 0)
(-3.11923e-14 0 0)
(-1.54364e-14 0 0)
(5.42255e-14 0 0)
(-7.40721e-15 0 0)
(4.65782e-14 0 0)
(1.56235e-14 0 0)
(-2.32254e-14 0 0)
(7.69531e-15 0 0)
(-7.77835e-15 0 0)
)
;

boundaryField
{
    sides
    {
        type            zeroGradient;
    }
    empty
    {
        type            empty;
    }
}


// ************************************************************************* //
