/*--------------------------------*- C++ -*----------------------------------*\
  =========                 |
  \\      /  F ield         | OpenFOAM: The Open Source CFD Toolbox
   \\    /   O peration     | Website:  https://openfoam.org
    \\  /    A nd           | Version:  13
     \\/     M anipulation  |
\*---------------------------------------------------------------------------*/
FoamFile
{
    format      ascii;
    class       volScalarField;
    location    "0.007";
    object      mag(U);
}
// * * * * * * * * * * * * * * * * * * * * * * * * * * * * * * * * * * * * * //

dimensions      [0 1 -1 0 0 0 0];

internalField   nonuniform List<scalar> 
1000
(
7.45515e-13
6.87144e-13
8.47792e-13
8.47629e-13
7.30999e-13
5.40815e-13
1.90042e-13
4.37043e-14
5.11643e-14
4.3833e-14
2.2058e-14
2.0454e-13
3.29043e-13
3.06893e-13
2.4109e-13
2.19319e-13
1.82741e-13
2.85026e-13
7.25772e-15
7.23223e-15
5.10446e-14
2.91305e-14
2.04415e-13
3.28843e-13
2.77778e-13
3.36238e-13
3.94583e-13
2.92437e-13
3.43632e-13
4.16564e-13
3.50915e-13
6.13883e-13
6.28469e-13
6.7233e-13
2.92435e-13
1.7556e-13
2.84943e-13
2.41343e-13
2.9955e-13
2.48414e-13
2.26603e-13
1.38875e-13
5.11853e-14
6.57857e-14
1.82709e-13
1.31679e-13
2.7785e-13
3.72545e-13
2.92264e-13
1.75387e-13
2.04547e-13
1.68181e-13
2.62991e-13
3.65849e-14
6.58096e-14
5.85942e-14
8.7534e-14
2.18069e-14
2.48373e-13
1.89868e-13
2.11792e-13
1.75479e-13
1.5349e-13
8.78009e-14
1.90019e-13
5.1148e-14
1.24363e-13
2.92366e-13
3.50606e-13
9.52482e-14
2.40975e-13
1.45917e-13
1.96973e-13
1.38701e-13
7.31222e-14
3.63504e-14
1.97196e-13
5.86391e-14
1.46122e-13
2.19223e-14
2.21688e-14
2.33704e-13
2.92111e-13
4.37769e-14
2.41021e-13
5.126e-14
7.30228e-14
8.91187e-17
1.67973e-13
2.19298e-14
1.82645e-13
5.11382e-14
2.85036e-13
4.23735e-13
3.21634e-13
3.72789e-13
4.01814e-13
2.70547e-13
1.97494e-13
3.94657e-13
7.16126e-13
5.70245e-13
4.60435e-13
5.84549e-13
3.94677e-13
1.90245e-13
3.36179e-13
4.89722e-13
5.84672e-13
5.99313e-13
6.35937e-13
7.74565e-13
5.70096e-13
3.72916e-13
4.67786e-13
5.9927e-13
5.70169e-13
5.99272e-13
5.26208e-13
4.09286e-13
3.07016e-13
2.77735e-13
1.97412e-13
2.4107e-13
1.90168e-13
2.19141e-13
1.75549e-13
2.26505e-13
7.30988e-14
6.5752e-14
2.19121e-14
7.31008e-14
1.89909e-13
8.044e-14
3.6537e-14
1.4632e-14
7.29771e-14
3.65537e-14
1.14205e-16
5.8483e-14
1.46055e-13
1.024e-13
1.02312e-13
8.03971e-14
1.31525e-13
1.17008e-13
1.60691e-13
1.17077e-13
1.82587e-13
1.31683e-13
1.89827e-13
5.86728e-14
1.09524e-13
9.51207e-14
1.46078e-13
8.04641e-14
9.49605e-14
2.92713e-14
2.18618e-14
5.10648e-14
2.19222e-14
2.92281e-17
2.19086e-14
1.47014e-14
6.58022e-14
1.46039e-13
9.5083e-14
1.02301e-13
8.04489e-14
1.31498e-13
1.09714e-13
1.60673e-13
1.09775e-13
1.67967e-13
1.24373e-13
1.82505e-13
7.33457e-14
1.60695e-13
3.94606e-13
7.08949e-13
1.87122e-12
3.90299e-12
8.65374e-12
1.76073e-11
3.6852e-11
7.56186e-11
1.55593e-10
3.15009e-10
6.38124e-10
1.28263e-09
2.56914e-09
5.10905e-09
1.01087e-08
1.98719e-08
3.88325e-08
7.54005e-08
1.45476e-07
2.78837e-07
5.30889e-07
1.00386e-06
1.88495e-06
3.51396e-06
6.50263e-06
1.19423e-05
2.17623e-05
3.93401e-05
7.05298e-05
0.000125372
0.000220895
0.000385651
0.000666908
0.0011419
0.00193504
0.00324361
0.00537522
0.00880049
0.0142242
0.0226764
0.0356205
0.0550688
0.0836842
0.12484
0.182604
0.261624
0.366912
0.503567
0.676456
0.889939
1.14764
1.45231
1.80576
2.20889
2.66174
3.16359
3.71314
4.30856
4.94771
5.62817
6.3474
7.10281
7.89181
8.71188
9.56059
10.4356
11.3349
12.2562
13.1979
14.1581
15.1353
16.1281
17.135
18.155
19.1869
20.2297
21.2825
22.3445
23.415
24.4933
25.5788
26.6708
27.769
28.8729
29.9819
31.0958
32.2142
33.3368
34.4633
35.5934
36.7269
37.8635
39.0031
40.1454
41.2903
42.4376
43.5872
44.7389
45.8926
47.0482
48.2055
49.3645
50.5251
51.6871
52.8505
54.0153
55.1813
56.3484
57.5167
58.686
59.8563
61.0275
62.1996
63.3725
64.5462
65.7206
66.8957
68.0715
69.2479
70.4248
71.6023
72.7803
73.9587
75.1376
76.3168
77.4964
78.6764
79.8566
81.0371
82.2179
83.3988
84.5799
85.7611
86.9423
88.1237
89.3051
90.4864
91.6676
92.8488
94.0298
95.2105
96.3911
97.5712
98.751
99.9303
101.109
102.287
103.465
104.641
105.817
106.992
108.165
109.337
110.507
111.676
112.842
114.006
115.168
116.326
117.481
118.631
119.777
120.917
122.05
123.176
124.293
125.4
126.493
127.572
128.633
129.673
130.688
131.673
132.623
133.531
134.393
135.199
135.945
136.625
137.232
137.765
138.223
138.607
138.922
139.172
139.366
139.512
139.618
139.693
139.744
139.776
139.797
139.808
139.814
139.817
139.82
139.823
139.825
139.829
139.832
139.837
139.843
139.851
139.864
139.884
139.915
139.964
140.043
140.165
140.351
140.623
141.001
141.503
142.132
142.886
143.753
144.715
145.759
146.868
148.032
149.238
150.48
151.75
153.043
154.356
155.684
157.025
158.377
159.739
161.108
162.484
163.866
165.253
166.644
168.038
169.436
170.837
172.24
173.646
175.053
176.463
177.874
179.286
180.699
182.114
183.53
184.947
186.365
187.783
189.202
190.622
192.043
193.464
194.886
196.308
197.731
199.154
200.577
202.001
203.425
204.85
206.275
207.7
209.126
210.551
211.977
213.404
214.83
216.257
217.684
219.111
220.539
221.966
223.394
224.822
226.25
227.678
229.107
230.536
231.964
233.393
234.822
236.252
237.681
239.111
240.54
241.97
243.4
244.83
246.26
247.69
249.12
250.551
251.981
253.411
254.842
256.272
257.703
259.133
260.564
261.994
263.425
264.855
266.285
267.715
269.144
270.574
272.003
273.431
274.859
276.287
277.714
279.14
280.565
281.989
283.411
284.832
286.251
287.668
289.082
290.493
291.903
293.31
294.721
296.132
297.539
298.939
300.332
301.715
303.086
304.444
305.785
307.105
308.4
309.663
310.884
312.052
313.154
314.173
315.093
315.899
316.58
317.13
317.548
317.846
318.04
318.157
318.221
318.255
318.271
318.276
318.276
318.274
318.273
318.273
318.272
318.272
318.272
318.272
318.272
318.272
318.273
318.273
318.273
318.274
318.274
318.274
318.274
318.275
318.275
318.275
318.276
318.276
318.276
318.277
318.277
318.277
318.277
318.277
318.278
318.278
318.278
318.278
318.278
318.278
318.279
318.279
318.279
318.279
318.279
318.279
318.279
318.28
318.28
318.28
318.28
318.28
318.28
318.28
318.28
318.281
318.281
318.281
318.281
318.281
318.281
318.281
318.281
318.281
318.281
318.282
318.282
318.282
318.282
318.282
318.282
318.282
318.282
318.282
318.282
318.282
318.282
318.282
318.282
318.283
318.283
318.283
318.283
318.283
318.283
318.283
318.283
318.283
318.283
318.283
318.283
318.283
318.283
318.283
318.283
318.283
318.283
318.283
318.283
318.283
318.283
318.283
318.283
318.283
318.283
318.284
318.284
318.284
318.284
318.284
318.284
318.284
318.284
318.284
318.284
318.284
318.284
318.284
318.284
318.284
318.284
318.284
318.284
318.284
318.284
318.284
318.284
318.284
318.284
318.284
318.284
318.284
318.284
318.284
318.284
318.284
318.284
318.284
318.284
318.284
318.284
318.284
318.284
318.284
318.284
318.284
318.284
318.284
318.284
318.284
318.284
318.284
318.284
318.284
318.284
318.284
318.284
318.284
318.284
318.284
318.284
318.283
318.283
318.283
318.283
318.283
318.283
318.283
318.283
318.283
318.283
318.283
318.283
318.283
318.283
318.283
318.283
318.283
318.283
318.283
318.283
318.283
318.283
318.283
318.283
318.283
318.283
318.284
318.284
318.285
318.286
318.287
318.289
318.292
318.295
318.299
318.303
318.307
318.311
318.315
318.317
318.319
318.319
318.318
318.315
318.311
318.307
318.303
318.299
318.297
318.295
318.295
318.294
318.294
318.294
318.294
318.294
318.294
318.294
318.294
318.293
318.294
318.293
318.293
318.293
318.293
318.293
318.293
318.293
318.293
318.293
318.293
318.293
318.293
318.293
318.293
318.292
318.292
318.292
318.292
318.292
318.292
318.292
318.292
318.292
318.292
318.292
318.292
318.292
318.292
318.292
318.292
318.292
318.291
318.291
318.291
318.291
318.291
318.291
318.291
318.291
318.291
318.291
318.291
318.291
318.291
318.291
318.291
318.29
318.29
318.29
318.29
318.29
318.29
318.29
318.29
318.29
318.29
318.29
318.29
318.29
318.289
318.289
318.289
318.289
318.289
318.289
318.289
318.289
318.289
318.289
318.289
318.289
318.288
318.288
318.288
318.288
318.288
318.288
318.288
318.288
318.288
318.288
318.287
318.287
318.287
318.287
318.287
318.287
318.287
318.287
318.287
318.286
318.286
318.286
318.286
318.286
318.286
318.286
318.286
318.285
318.285
318.285
318.285
318.285
318.285
318.285
318.285
318.284
318.284
318.284
318.284
318.284
318.284
318.283
318.283
318.283
318.283
318.283
318.283
318.282
318.282
318.282
318.282
318.282
318.282
318.281
318.281
318.281
318.281
318.281
318.28
318.28
318.28
318.28
318.28
318.279
318.279
318.279
318.278
318.278
318.278
318.278
318.276
318.278
318.274
318.278
318.271
318.278
318.266
318.281
318.256
318.282
318.232
318.269
318.161
318.192
317.936
317.847
317.248
316.342
314.879
309.986
305.168
285.415
262.441
192.159
86.049
15.9463
2.66323
0.426519
0.0680067
0.0108367
0.00172655
0.000275081
4.38272e-05
6.98276e-06
1.11252e-06
1.77252e-07
2.8242e-08
4.49888e-09
7.18502e-10
1.14511e-10
1.93503e-11
4.11822e-12
1.1046e-12
7.58404e-13
7.50313e-13
6.9622e-13
8.06295e-13
1.08611e-12
1.49905e-12
1.32279e-12
1.37508e-12
1.25038e-12
1.07092e-12
9.15018e-13
8.29282e-13
8.59862e-13
8.36312e-13
9.60172e-13
8.84408e-13
8.04737e-13
6.10743e-13
7.27727e-13
9.53152e-13
8.36922e-13
1.063e-12
1.20357e-12
1.33492e-12
1.14314e-12
1.1648e-12
1.07083e-12
8.37508e-13
1.08576e-12
9.23008e-13
1.01644e-12
1.13336e-12
1.07033e-12
8.21028e-13
7.4266e-13
6.17182e-13
4.38587e-13
5.4028e-13
7.26523e-13
8.42414e-13
4.08329e-13
6.79883e-13
7.27219e-13
8.44802e-13
1.08576e-12
1.04001e-12
1.17331e-12
1.21906e-12
1.06952e-12
8.53546e-13
1.00064e-12
1.14905e-12
1.32948e-12
1.64204e-12
1.74334e-12
1.68833e-12
1.72013e-12
2.04756e-12
1.89172e-12
1.92341e-12
1.86047e-12
1.76732e-12
1.9388e-12
2.02477e-12
2.00816e-12
2.05746e-12
2.46189e-12
2.51712e-12
2.40075e-12
2.53238e-12
2.40798e-12
)
;

boundaryField
{
    sides
    {
        type            calculated;
        value           nonuniform List<scalar> 2(2.40798e-12 7.45515e-13);
    }
    empty
    {
        type            empty;
    }
}


// ************************************************************************* //
