/*--------------------------------*- C++ -*----------------------------------*\
  =========                 |
  \\      /  F ield         | OpenFOAM: The Open Source CFD Toolbox
   \\    /   O peration     | Website:  https://openfoam.org
    \\  /    A nd           | Version:  13
     \\/     M anipulation  |
\*---------------------------------------------------------------------------*/
FoamFile
{
    format      ascii;
    class       volScalarField;
    location    "0.007";
    object      p;
}
// * * * * * * * * * * * * * * * * * * * * * * * * * * * * * * * * * * * * * //

dimensions      [1 -1 -2 0 0 0 0];

internalField   nonuniform List<scalar> 
1000
(
100000
100000
100000
100000
100000
100000
100000
100000
100000
100000
100000
100000
100000
100000
100000
100000
100000
100000
100000
100000
100000
100000
100000
100000
100000
100000
100000
100000
100000
100000
100000
100000
100000
100000
100000
100000
100000
100000
100000
100000
100000
100000
100000
100000
100000
100000
100000
100000
100000
100000
100000
100000
100000
100000
100000
100000
100000
100000
100000
100000
100000
100000
100000
100000
100000
100000
100000
100000
100000
100000
100000
100000
100000
100000
100000
100000
100000
100000
100000
100000
100000
100000
100000
100000
100000
100000
100000
100000
100000
100000
100000
100000
100000
100000
100000
100000
100000
100000
100000
100000
100000
100000
100000
100000
100000
100000
100000
100000
100000
100000
100000
100000
100000
100000
100000
100000
100000
100000
100000
100000
100000
100000
100000
100000
100000
100000
100000
100000
100000
100000
100000
100000
100000
100000
100000
100000
100000
100000
100000
100000
100000
100000
100000
100000
100000
100000
100000
100000
100000
100000
100000
100000
100000
100000
100000
100000
100000
100000
100000
100000
100000
100000
100000
100000
100000
100000
100000
100000
100000
100000
100000
100000
100000
100000
100000
100000
100000
100000
100000
100000
100000
100000
100000
100000
100000
100000
100000
100000
100000
100000
100000
100000
100000
100000
100000
100000
100000
100000
100000
100000
100000
100000
100000
100000
100000
100000
100000
100000
99999.9
99999.9
99999.8
99999.6
99999.3
99998.8
99998
99996.7
99994.7
99991.6
99986.7
99979.5
99968.9
99953.5
99932.1
99902.7
99863.5
99812.7
99748.5
99669.2
99573.6
99460.7
99329.8
99180.7
99013.5
98828.4
98626.1
98407.3
98172.8
97923.8
97661.1
97385.9
97099.2
96801.9
96495.1
96179.6
95856.4
95526.1
95189.5
94847.4
94500.3
94148.8
93793.4
93434.6
93072.8
92708.4
92341.7
91973.1
91602.8
91231.1
90858.2
90484.4
90109.8
89734.6
89359
88983.1
88607
88230.9
87854.9
87479
87103.4
86728.2
86353.3
85979
85605.2
85232
84859.4
84487.6
84116.5
83746.3
83376.8
83008.2
82640.5
82273.8
81908
81543.2
81179.4
80816.6
80454.8
80094.2
79734.6
79376.1
79018.7
78662.4
78307.3
77953.3
77600.5
77248.9
76898.4
76549.2
76201.1
75854.3
75508.6
75164.2
74821
74479.1
74138.4
73798.9
73460.7
73123.8
72788.1
72453.7
72120.6
71788.7
71458.2
71128.9
70801
70474.3
70149
69825
69502.4
69181.1
68861.2
68542.6
68225.4
67909.6
67595.3
67282.3
66970.9
66660.9
66352.4
66045.5
65740.1
65436.4
65134.3
64833.9
64535.4
64238.7
63944
63651.3
63360.9
63072.7
62787.1
62504.2
62224.4
61947.8
61674.8
61406
61141.8
60883
60630.2
60384.4
60146.6
59918
59700
59494.1
59301.8
59124.4
58963.2
58819.4
58693.5
58585.5
58495
58421.1
58362.3
58316.7
58282.5
58257.5
58240
58228.1
58220.4
58215.7
58213
58211.6
58210.9
58210.3
58209.8
58209.3
58208.6
58207.9
58207
58205.8
58204.1
58201.5
58197.6
58191.5
58181.7
58166.1
58141.9
58105.1
58051.3
57976.5
57877.6
57753.5
57605.4
57435.6
57247.6
57044.4
56829.3
56604.5
56372.4
56134.5
55892.2
55646.5
55398.2
55148.2
54896.8
54644.5
54391.7
54138.5
53885.4
53632.4
53379.7
53127.3
52875.6
52624.4
52373.9
52124.2
51875.2
51627.1
51379.9
51133.6
50888.2
50643.7
50400.3
50157.8
49916.3
49675.9
49436.4
49198
48960.6
48724.3
48489
48254.8
48021.6
47789.4
47558.3
47328.3
47099.3
46871.4
46644.5
46418.7
46193.9
45970.1
45747.4
45525.7
45305.1
45085.5
44866.9
44649.4
44432.9
44217.3
44002.9
43789.4
43576.9
43365.5
43155
42945.5
42737.1
42529.6
42323.1
42117.6
41913
41709.5
41506.9
41305.2
41104.6
40904.9
40706.1
40508.3
40311.5
40115.6
39920.6
39726.6
39533.5
39341.4
39150.1
38959.8
38770.5
38582
38394.5
38207.9
38022.2
37837.5
37653.7
37470.7
37288.8
37107.7
36927.6
36748.4
36570.2
36392.9
36216.5
36041.2
35866.8
35693.4
35521.1
35349.9
35179.7
35010.7
34842.7
34676.1
34510.1
34344.5
34179.8
34016.4
33854.6
33694.4
33536.1
33379.8
33225.8
33074.4
32926
32781.1
32640.4
32505
32375.9
32254.6
32142.9
32042.3
31954.4
31880.4
31820.8
31775.5
31743.3
31722.2
31709.7
31702.7
31699
31697.3
31696.7
31696.8
31696.9
31697
31697.1
31697.2
31697.2
31697.2
31697.2
31697.2
31697.2
31697.1
31697.1
31697
31697
31697
31696.9
31696.9
31696.8
31696.8
31696.7
31696.7
31696.7
31696.6
31696.6
31696.5
31696.5
31696.5
31696.5
31696.4
31696.4
31696.4
31696.3
31696.3
31696.3
31696.3
31696.2
31696.2
31696.2
31696.2
31696.1
31696.1
31696.1
31696.1
31696.1
31696
31696
31696
31696
31695.9
31695.9
31695.9
31695.9
31695.9
31695.8
31695.8
31695.8
31695.8
31695.8
31695.7
31695.7
31695.7
31695.7
31695.7
31695.7
31695.6
31695.6
31695.6
31695.6
31695.6
31695.6
31695.5
31695.5
31695.5
31695.5
31695.5
31695.5
31695.5
31695.4
31695.4
31695.4
31695.4
31695.4
31695.4
31695.4
31695.3
31695.3
31695.3
31695.3
31695.3
31695.3
31695.3
31695.3
31695.2
31695.2
31695.2
31695.2
31695.2
31695.2
31695.2
31695.2
31695.2
31695.1
31695.1
31695.1
31695.1
31695.1
31695.1
31695.1
31695.1
31695.1
31695
31695
31695
31695
31695
31695
31695
31695
31695
31694.9
31694.9
31694.9
31694.9
31694.9
31694.9
31694.9
31694.9
31694.9
31694.8
31694.8
31694.8
31694.8
31694.8
31694.8
31694.8
31694.8
31694.8
31694.7
31694.7
31694.7
31694.7
31694.7
31694.7
31694.7
31694.7
31694.7
31694.7
31694.6
31694.6
31694.6
31694.6
31694.6
31694.6
31694.6
31694.6
31694.6
31694.5
31694.5
31694.5
31694.5
31694.5
31694.5
31694.5
31694.5
31694.5
31694.4
31694.4
31694.4
31694.4
31694.4
31694.4
31694.4
31694.4
31694.3
31694.3
31694.3
31694.3
31694.3
31694.3
31694.3
31694.3
31694.4
31694.4
31694.5
31694.6
31694.8
31695
31695.3
31695.7
31696.1
31696.5
31697
31697.4
31697.8
31698
31698.1
31698
31697.8
31697.3
31696.7
31696.1
31695.5
31695
31694.6
31694.4
31694.2
31694.1
31694.1
31694.1
31694.1
31694.1
31694
31694
31694
31694
31694
31694
31694
31694
31694
31694
31694
31694
31694
31694
31693.9
31693.9
31693.9
31693.9
31693.9
31693.9
31693.9
31693.9
31693.9
31693.9
31693.9
31693.9
31693.9
31693.9
31693.8
31693.8
31693.8
31693.8
31693.8
31693.8
31693.8
31693.8
31693.8
31693.8
31693.8
31693.8
31693.8
31693.8
31693.7
31693.7
31693.7
31693.7
31693.7
31693.7
31693.7
31693.7
31693.7
31693.7
31693.7
31693.7
31693.6
31693.6
31693.6
31693.6
31693.6
31693.6
31693.6
31693.6
31693.6
31693.6
31693.6
31693.5
31693.5
31693.5
31693.5
31693.5
31693.5
31693.5
31693.5
31693.5
31693.5
31693.4
31693.4
31693.4
31693.4
31693.4
31693.4
31693.4
31693.4
31693.4
31693.4
31693.3
31693.3
31693.3
31693.3
31693.3
31693.3
31693.3
31693.3
31693.2
31693.2
31693.2
31693.2
31693.2
31693.2
31693.2
31693.1
31693.1
31693.1
31693.1
31693.1
31693.1
31693.1
31693.1
31693
31693
31693
31693
31693
31693
31692.9
31692.9
31692.9
31692.9
31692.9
31692.9
31692.8
31692.8
31692.8
31692.8
31692.8
31692.7
31692.7
31692.7
31692.7
31692.7
31692.6
31692.6
31692.6
31692.6
31692.6
31692.5
31692.5
31692.5
31692.5
31692.4
31692.4
31692.4
31692.4
31692.3
31692.3
31692.2
31692.3
31692
31692.2
31691.8
31692.3
31691.3
31692.5
31690.5
31693
31688.5
31693.8
31682.8
31693.4
31665.9
31685
31614.1
31632.8
31440.9
31389.1
30776
30383.6
28341.6
26281.9
20480.9
13925.7
10683.3
10136.3
10045.7
10031.3
10028.9
10028.6
10028.5
10028.5
10028.5
10028.5
10028.5
10028.5
10028.5
10028.5
10028.5
10028.5
10028.5
10028.5
10028.5
10028.5
10028.5
10028.5
10028.5
10028.5
10028.5
10028.5
10028.5
10028.5
10028.5
10028.5
10028.5
10028.5
10028.5
10028.5
10028.5
10028.5
10028.5
10028.5
10028.5
10028.5
10028.5
10028.5
10028.5
10028.5
10028.5
10028.5
10028.5
10028.5
10028.5
10028.5
10028.5
10028.5
10028.5
10028.5
10028.5
10028.5
10028.5
10028.5
10028.5
10028.5
10028.5
10028.5
10028.5
10028.5
10028.5
10028.5
10028.5
10028.5
10028.5
10028.5
10028.5
10028.5
10028.5
10028.5
10028.5
10028.5
10028.5
10028.5
10028.5
10028.5
10028.5
10028.5
10028.5
10028.5
10028.5
10028.5
10028.5
10028.5
10028.5
)
;

boundaryField
{
    sides
    {
        type            zeroGradient;
    }
    empty
    {
        type            empty;
    }
}


// ************************************************************************* //
