/*--------------------------------*- C++ -*----------------------------------*\
  =========                 |
  \\      /  F ield         | OpenFOAM: The Open Source CFD Toolbox
   \\    /   O peration     | Website:  https://openfoam.org
    \\  /    A nd           | Version:  13
     \\/     M anipulation  |
\*---------------------------------------------------------------------------*/
FoamFile
{
    format      ascii;
    class       surfaceScalarField;
    location    "0.007";
    object      phi;
}
// * * * * * * * * * * * * * * * * * * * * * * * * * * * * * * * * * * * * * //

dimensions      [1 0 -1 0 0 0 0];

internalField   nonuniform List<scalar> 
999
(
2.84217e-12
2.72848e-12
3.63798e-12
2.95586e-12
2.72848e-12
1.7053e-12
0
-2.27374e-13
1.13687e-13
5.68434e-13
-9.09495e-13
-1.02318e-12
-1.36424e-12
-9.09495e-13
-1.02318e-12
-7.95808e-13
-9.09495e-13
-5.68434e-13
0
-2.27374e-13
5.68434e-13
-2.27374e-13
-1.25056e-12
-1.25056e-12
-1.36424e-12
-1.36424e-12
-1.02318e-12
-1.25056e-12
-1.81899e-12
-1.25056e-12
-2.16005e-12
-2.38742e-12
-2.6148e-12
-1.81899e-12
-7.95808e-13
-1.25056e-12
-1.02318e-12
-1.02318e-12
-1.02318e-12
-9.09495e-13
-7.95808e-13
-3.41061e-13
-3.41061e-13
-3.41061e-13
-6.82121e-13
-7.95808e-13
-1.59162e-12
-1.36424e-12
-4.54747e-13
1.13687e-13
5.68434e-13
7.95808e-13
5.68434e-13
-5.68434e-13
-1.13687e-13
-3.41061e-13
-2.27374e-13
-4.54747e-13
-1.13687e-13
7.95808e-13
3.41061e-13
1.02318e-12
1.13687e-13
6.82121e-13
3.41061e-13
3.41061e-13
9.09495e-13
1.13687e-12
1.13687e-12
7.95808e-13
3.41061e-13
-2.27374e-13
-5.68434e-13
-3.41061e-13
-4.54747e-13
-4.54747e-13
-4.54747e-13
-1.13687e-13
-1.13687e-13
-2.27374e-13
-6.82121e-13
-7.95808e-13
-6.82121e-13
4.54747e-13
6.82121e-13
3.41061e-13
0
-4.54747e-13
-2.27374e-13
-4.54747e-13
-2.27374e-13
4.54747e-13
1.36424e-12
1.47793e-12
1.02318e-12
1.81899e-12
1.25056e-12
9.09495e-13
1.36424e-12
2.04636e-12
2.72848e-12
2.04636e-12
1.93268e-12
1.93268e-12
1.25056e-12
9.09495e-13
1.7053e-12
2.16005e-12
2.38742e-12
2.38742e-12
2.95586e-12
2.6148e-12
2.04636e-12
1.59162e-12
2.27374e-12
2.38742e-12
2.38742e-12
2.27374e-12
2.04636e-12
1.36424e-12
1.13687e-12
9.09495e-13
9.09495e-13
7.95808e-13
7.95808e-13
7.95808e-13
6.82121e-13
4.54747e-13
2.27374e-13
2.27374e-13
0
-4.54747e-13
-6.82121e-13
-2.27374e-13
-1.13687e-13
2.27374e-13
2.27374e-13
0
1.13687e-13
4.54747e-13
4.54747e-13
4.54747e-13
4.54747e-13
4.54747e-13
4.54747e-13
5.68434e-13
5.68434e-13
5.68434e-13
5.68434e-13
5.68434e-13
4.54747e-13
3.41061e-13
4.54747e-13
4.54747e-13
4.54747e-13
3.41061e-13
3.41061e-13
-1.13687e-13
-1.13687e-13
-2.27374e-13
0
0
0
1.13687e-13
4.54747e-13
4.54747e-13
4.54747e-13
4.54747e-13
4.54747e-13
4.54747e-13
5.68434e-13
5.68434e-13
5.68434e-13
5.68434e-13
5.68434e-13
4.54747e-13
3.41061e-13
1.25056e-12
1.93268e-12
4.88853e-12
1.06866e-11
2.26237e-11
4.76348e-11
9.92486e-11
2.04977e-10
4.21778e-10
8.59586e-10
1.74248e-09
3.51395e-09
7.05359e-09
1.40755e-08
2.79242e-08
5.50712e-08
1.07948e-07
2.10283e-07
4.07045e-07
7.82838e-07
1.49564e-06
2.83821e-06
5.34879e-06
1.00089e-05
1.85934e-05
3.42841e-05
6.27332e-05
0.000113888
0.000205082
0.000366218
0.000648321
0.00113748
0.00197724
0.00340383
0.00580086
0.00978202
0.0163134
0.0268893
0.0437751
0.0703288
0.111401
0.173789
0.26669
0.402051
0.594676
0.86198
1.22331
1.69892
2.30867
3.07083
4.00095
5.11114
6.40965
7.90079
9.58515
11.4599
13.5196
15.7562
18.1604
20.7213
23.4276
26.2677
29.2298
32.3025
35.4749
38.7364
42.0773
45.4883
48.961
52.4877
56.0611
59.6748
63.3228
66.9997
70.7007
74.4213
78.1576
81.9059
85.6629
89.4258
93.1918
96.9586
100.724
104.486
108.243
111.993
115.735
119.467
123.189
126.898
130.595
134.279
137.947
141.601
145.239
148.86
152.464
156.051
159.619
163.169
166.701
170.213
173.706
177.179
180.632
184.065
187.477
190.869
194.24
197.59
200.919
204.227
207.513
210.778
214.021
217.243
220.443
223.622
226.779
229.913
233.026
236.118
239.187
242.234
245.259
248.263
251.244
254.204
257.141
260.056
262.95
265.821
268.671
271.498
274.303
277.087
279.848
282.588
285.305
288.001
290.674
293.325
295.955
298.562
301.147
303.71
306.251
308.769
311.265
313.739
316.19
318.618
321.023
323.405
325.764
328.099
330.41
332.696
334.957
337.193
339.402
341.585
343.738
345.863
347.956
350.017
352.042
354.03
355.976
357.878
359.731
361.528
363.264
364.932
366.522
368.026
369.433
370.736
371.924
372.99
373.93
374.742
375.429
375.995
376.45
376.807
377.078
377.277
377.42
377.518
377.582
377.622
377.645
377.658
377.664
377.668
377.671
377.675
377.679
377.684
377.69
377.697
377.707
377.721
377.743
377.778
377.833
377.92
378.058
378.27
378.587
379.038
379.65
380.436
381.394
382.509
383.756
385.111
386.549
388.05
389.595
391.171
392.767
394.374
395.986
397.596
399.201
400.798
402.383
403.954
405.51
407.05
408.572
410.076
411.561
413.026
414.471
415.896
417.3
418.683
420.045
421.386
422.706
424.005
425.283
426.54
427.776
428.991
430.184
431.357
432.51
433.641
434.752
435.843
436.913
437.964
438.994
440.004
440.995
441.966
442.917
443.849
444.762
445.656
446.531
447.387
448.224
449.043
449.844
450.626
451.391
452.137
452.866
453.577
454.271
454.947
455.606
456.248
456.874
457.482
458.074
458.649
459.209
459.751
460.278
460.789
461.284
461.764
462.228
462.676
463.11
463.528
463.931
464.32
464.693
465.052
465.397
465.727
466.043
466.346
466.634
466.908
467.168
467.415
467.649
467.869
468.076
468.27
468.451
468.619
468.774
468.917
469.047
469.165
469.271
469.364
469.446
469.516
469.574
469.621
469.656
469.68
469.693
469.695
469.686
469.667
469.637
469.597
469.547
469.488
469.42
469.343
469.258
469.166
469.068
468.965
468.859
468.751
468.645
468.544
468.45
468.366
468.295
468.238
468.195
468.166
468.147
468.135
468.129
468.126
468.125
468.124
468.124
468.123
468.123
468.123
468.123
468.122
468.122
468.122
468.122
468.122
468.121
468.121
468.121
468.121
468.121
468.121
468.121
468.12
468.12
468.12
468.12
468.12
468.12
468.12
468.12
468.119
468.119
468.119
468.119
468.119
468.119
468.119
468.119
468.118
468.118
468.118
468.118
468.118
468.118
468.118
468.117
468.117
468.117
468.117
468.117
468.117
468.116
468.116
468.116
468.116
468.116
468.116
468.115
468.115
468.115
468.115
468.115
468.115
468.114
468.114
468.114
468.114
468.114
468.113
468.113
468.113
468.113
468.113
468.112
468.112
468.112
468.112
468.112
468.111
468.111
468.111
468.111
468.111
468.11
468.11
468.11
468.11
468.11
468.109
468.109
468.109
468.109
468.109
468.108
468.108
468.108
468.108
468.108
468.107
468.107
468.107
468.107
468.107
468.106
468.106
468.106
468.106
468.105
468.105
468.105
468.104
468.104
468.104
468.103
468.103
468.103
468.102
468.102
468.101
468.101
468.1
468.1
468.099
468.099
468.098
468.098
468.097
468.097
468.096
468.095
468.095
468.094
468.094
468.093
468.092
468.092
468.091
468.09
468.09
468.089
468.088
468.088
468.087
468.086
468.086
468.085
468.084
468.083
468.082
468.082
468.081
468.08
468.079
468.078
468.077
468.077
468.076
468.075
468.074
468.073
468.072
468.071
468.069
468.068
468.066
468.064
468.061
468.057
468.051
468.044
468.033
468.017
467.995
467.962
467.916
467.851
467.759
467.631
467.453
467.21
466.881
466.439
465.852
465.083
464.085
462.806
461.189
459.17
456.682
453.661
450.044
445.78
440.83
435.177
428.83
421.826
414.237
406.169
397.758
389.169
380.586
372.206
364.223
356.818
350.146
344.324
339.416
335.43
332.315
329.972
328.274
327.083
326.272
325.735
325.387
325.167
325.031
324.95
324.901
324.875
324.86
324.852
324.849
324.848
324.847
324.847
324.847
324.848
324.849
324.85
324.851
324.851
324.852
324.851
324.851
324.851
324.851
324.851
324.85
324.849
324.849
324.848
324.847
324.846
324.846
324.845
324.844
324.844
324.843
324.843
324.842
324.842
324.841
324.841
324.84
324.84
324.839
324.839
324.838
324.838
324.838
324.837
324.837
324.837
324.836
324.836
324.836
324.835
324.835
324.835
324.834
324.834
324.834
324.833
324.833
324.833
324.833
324.832
324.832
324.832
324.831
324.831
324.831
324.831
324.83
324.83
324.83
324.829
324.829
324.829
324.829
324.828
324.828
324.828
324.828
324.827
324.827
324.827
324.826
324.826
324.826
324.826
324.825
324.825
324.825
324.825
324.824
324.824
324.824
324.823
324.823
324.823
324.823
324.822
324.822
324.822
324.821
324.821
324.821
324.821
324.82
324.82
324.82
324.819
324.819
324.819
324.818
324.818
324.818
324.817
324.817
324.817
324.816
324.816
324.816
324.815
324.815
324.815
324.814
324.814
324.814
324.813
324.813
324.813
324.812
324.812
324.811
324.811
324.811
324.81
324.81
324.809
324.809
324.809
324.808
324.808
324.807
324.807
324.806
324.806
324.805
324.804
324.804
324.802
324.802
324.799
324.8
324.795
324.798
324.789
324.794
324.771
324.774
324.706
324.686
324.478
324.337
323.694
322.875
320.515
317.087
307.882
293.777
261.92
203.366
103.156
20.118
3.47552
0.562479
0.090013
0.0143604
0.00228878
0.000364699
5.81079e-05
9.25816e-06
1.47506e-06
2.35013e-07
3.74437e-08
5.96575e-09
9.50891e-10
1.51786e-10
2.4599e-11
4.37694e-12
9.66338e-13
4.12115e-13
3.2685e-13
3.2685e-13
3.55271e-13
4.12115e-13
5.68434e-13
6.39488e-13
6.11067e-13
6.11067e-13
4.83169e-13
4.83169e-13
3.69482e-13
3.97904e-13
3.97904e-13
4.12115e-13
4.40536e-13
3.83693e-13
3.83693e-13
3.2685e-13
3.97904e-13
3.83693e-13
4.26326e-13
5.11591e-13
6.11067e-13
5.82645e-13
5.54223e-13
5.68434e-13
4.26326e-13
4.54747e-13
4.40536e-13
4.68958e-13
5.11591e-13
4.83169e-13
4.40536e-13
3.69482e-13
3.41061e-13
1.98952e-13
2.41585e-13
3.12639e-13
3.41061e-13
2.98428e-13
2.41585e-13
3.55271e-13
3.41061e-13
4.40536e-13
4.68958e-13
5.40012e-13
5.54223e-13
5.11591e-13
4.54747e-13
4.26326e-13
5.11591e-13
5.68434e-13
7.24754e-13
7.95808e-13
8.3844e-13
7.95808e-13
8.66862e-13
9.09495e-13
8.81073e-13
9.23706e-13
8.3844e-13
8.52651e-13
9.23706e-13
9.52127e-13
9.37916e-13
1.12266e-12
1.13687e-12
1.13687e-12
1.12266e-12
1.15108e-12
)
;

boundaryField
{
    sides
    {
        type            calculated;
        value           nonuniform List<scalar> 2(1.10845e-12 -2.95586e-12);
    }
    empty
    {
        type            empty;
    }
}


// ************************************************************************* //
