/*--------------------------------*- C++ -*----------------------------------*\
  =========                 |
  \\      /  F ield         | OpenFOAM: The Open Source CFD Toolbox
   \\    /   O peration     | Website:  https://openfoam.org
    \\  /    A nd           | Version:  13
     \\/     M anipulation  |
\*---------------------------------------------------------------------------*/
FoamFile
{
    format      ascii;
    class       volScalarField;
    location    "0.007";
    object      rho;
}
// * * * * * * * * * * * * * * * * * * * * * * * * * * * * * * * * * * * * * //

dimensions      [1 -3 0 0 0 0 0];

internalField   nonuniform List<scalar> 
1000
(
0.995488
0.995488
0.995488
0.995488
0.995488
0.995488
0.995488
0.995488
0.995488
0.995488
0.995488
0.995488
0.995488
0.995488
0.995488
0.995488
0.995488
0.995488
0.995488
0.995488
0.995488
0.995488
0.995488
0.995488
0.995488
0.995488
0.995488
0.995488
0.995488
0.995488
0.995488
0.995488
0.995488
0.995488
0.995488
0.995488
0.995488
0.995488
0.995488
0.995488
0.995488
0.995488
0.995488
0.995488
0.995488
0.995488
0.995488
0.995488
0.995488
0.995488
0.995488
0.995488
0.995488
0.995488
0.995488
0.995488
0.995488
0.995488
0.995488
0.995488
0.995488
0.995488
0.995488
0.995488
0.995488
0.995488
0.995488
0.995488
0.995488
0.995488
0.995488
0.995488
0.995488
0.995488
0.995488
0.995488
0.995488
0.995488
0.995488
0.995488
0.995488
0.995488
0.995488
0.995488
0.995488
0.995488
0.995488
0.995488
0.995488
0.995488
0.995488
0.995488
0.995488
0.995488
0.995488
0.995488
0.995488
0.995488
0.995488
0.995488
0.995488
0.995488
0.995488
0.995488
0.995488
0.995488
0.995488
0.995488
0.995488
0.995488
0.995488
0.995488
0.995488
0.995488
0.995488
0.995488
0.995488
0.995488
0.995488
0.995488
0.995488
0.995488
0.995488
0.995488
0.995488
0.995488
0.995488
0.995488
0.995488
0.995488
0.995488
0.995488
0.995488
0.995488
0.995488
0.995488
0.995488
0.995488
0.995488
0.995488
0.995488
0.995488
0.995488
0.995488
0.995488
0.995488
0.995488
0.995488
0.995488
0.995488
0.995488
0.995488
0.995488
0.995488
0.995488
0.995488
0.995488
0.995488
0.995488
0.995488
0.995488
0.995488
0.995488
0.995488
0.995488
0.995488
0.995488
0.995488
0.995488
0.995488
0.995488
0.995488
0.995488
0.995488
0.995488
0.995488
0.995488
0.995488
0.995488
0.995488
0.995488
0.995488
0.995488
0.995488
0.995488
0.995488
0.995488
0.995488
0.995488
0.995488
0.995488
0.995488
0.995488
0.995488
0.995488
0.995488
0.995488
0.995488
0.995488
0.995488
0.995488
0.995488
0.995488
0.995488
0.995488
0.995488
0.995487
0.995487
0.995487
0.995487
0.995486
0.995485
0.995482
0.995479
0.995473
0.995464
0.99545
0.995427
0.995393
0.995341
0.995265
0.995155
0.995002
0.994791
0.994511
0.994148
0.993688
0.99312
0.992436
0.991627
0.990689
0.98962
0.98842
0.987092
0.98564
0.984068
0.982383
0.980591
0.978701
0.976718
0.974651
0.972506
0.97029
0.96801
0.965671
0.963279
0.96084
0.958357
0.955837
0.953281
0.950695
0.94808
0.945442
0.942781
0.940101
0.937404
0.934692
0.931966
0.929229
0.926481
0.923725
0.920961
0.918191
0.915416
0.912636
0.909853
0.907067
0.904279
0.90149
0.8987
0.89591
0.89312
0.89033
0.887542
0.884756
0.881972
0.879189
0.87641
0.873633
0.870859
0.868089
0.865323
0.86256
0.859801
0.857047
0.854297
0.851551
0.84881
0.846074
0.843343
0.840617
0.837897
0.835181
0.832471
0.829767
0.827068
0.824375
0.821688
0.819006
0.816331
0.813662
0.810998
0.808341
0.80569
0.803045
0.800407
0.797775
0.79515
0.792531
0.789919
0.787313
0.784715
0.782123
0.779538
0.77696
0.774389
0.771825
0.769268
0.766719
0.764177
0.761642
0.759116
0.756596
0.754085
0.751582
0.749087
0.746601
0.744123
0.741654
0.739195
0.736745
0.734304
0.731875
0.729455
0.727048
0.724652
0.722269
0.7199
0.717545
0.715207
0.712886
0.710584
0.708304
0.706048
0.703819
0.701621
0.699458
0.697337
0.695262
0.693243
0.691287
0.689406
0.687609
0.685911
0.684322
0.682856
0.681523
0.680333
0.67929
0.678395
0.677645
0.677032
0.676543
0.676165
0.675881
0.675674
0.675528
0.675429
0.675365
0.675326
0.675303
0.675292
0.675284
0.675278
0.675272
0.675266
0.675258
0.67525
0.675239
0.675225
0.675205
0.675176
0.675131
0.67506
0.674946
0.674766
0.674484
0.674057
0.673434
0.672566
0.671418
0.669979
0.66826
0.666291
0.66411
0.661753
0.659257
0.65665
0.653957
0.651197
0.648386
0.645536
0.642656
0.639755
0.636839
0.633912
0.630979
0.628043
0.625106
0.622171
0.619239
0.616312
0.613392
0.610478
0.607572
0.604675
0.601787
0.598909
0.596041
0.593183
0.590336
0.587501
0.584676
0.581864
0.579062
0.576273
0.573495
0.570729
0.567976
0.565234
0.562505
0.559787
0.557082
0.554389
0.551708
0.54904
0.546383
0.543739
0.541107
0.538487
0.535879
0.533284
0.5307
0.528129
0.525569
0.523022
0.520486
0.517962
0.51545
0.51295
0.510462
0.507986
0.505521
0.503068
0.500626
0.498196
0.495778
0.493371
0.490976
0.488592
0.486219
0.483857
0.481507
0.479168
0.47684
0.474524
0.472218
0.469923
0.46764
0.465367
0.463106
0.460855
0.458615
0.456386
0.454167
0.45196
0.449763
0.447577
0.445402
0.443237
0.441083
0.43894
0.436807
0.434685
0.432574
0.430474
0.428384
0.426306
0.424238
0.422181
0.420136
0.418101
0.416079
0.414068
0.412068
0.410082
0.408108
0.406147
0.404199
0.402266
0.40034
0.398419
0.396509
0.394613
0.392735
0.390877
0.389041
0.387228
0.385441
0.383685
0.381963
0.380282
0.37865
0.377079
0.375582
0.374175
0.372878
0.371711
0.370692
0.369833
0.369142
0.368616
0.368243
0.367999
0.367853
0.367772
0.36773
0.367709
0.367703
0.367703
0.367704
0.367705
0.367706
0.367706
0.367706
0.367706
0.367706
0.367706
0.367705
0.367705
0.367704
0.367704
0.367703
0.367703
0.367702
0.367702
0.367702
0.367701
0.367701
0.3677
0.3677
0.367699
0.367699
0.367699
0.367698
0.367698
0.367698
0.367697
0.367697
0.367697
0.367696
0.367696
0.367696
0.367695
0.367695
0.367695
0.367695
0.367694
0.367694
0.367694
0.367694
0.367693
0.367693
0.367693
0.367692
0.367692
0.367692
0.367692
0.367691
0.367691
0.367691
0.367691
0.36769
0.36769
0.36769
0.36769
0.367689
0.367689
0.367689
0.367689
0.367688
0.367688
0.367688
0.367688
0.367687
0.367687
0.367687
0.367687
0.367686
0.367686
0.367686
0.367686
0.367685
0.367685
0.367685
0.367685
0.367685
0.367684
0.367684
0.367684
0.367684
0.367684
0.367683
0.367683
0.367683
0.367683
0.367683
0.367682
0.367682
0.367682
0.367682
0.367682
0.367681
0.367681
0.367681
0.367681
0.367681
0.36768
0.36768
0.36768
0.36768
0.36768
0.367679
0.367679
0.367679
0.367679
0.367678
0.367678
0.367678
0.367677
0.367677
0.367677
0.367676
0.367676
0.367675
0.367675
0.367675
0.367674
0.367674
0.367673
0.367673
0.367673
0.367672
0.367672
0.367671
0.367671
0.36767
0.36767
0.367669
0.367669
0.367668
0.367668
0.367667
0.367667
0.367666
0.367666
0.367665
0.367665
0.367664
0.367663
0.367663
0.367662
0.367662
0.367661
0.36766
0.36766
0.367659
0.367659
0.367658
0.367657
0.367656
0.367656
0.367655
0.367654
0.367654
0.367653
0.367652
0.367651
0.367649
0.367648
0.367646
0.367643
0.367639
0.367634
0.367627
0.367616
0.367601
0.36758
0.367549
0.367505
0.367442
0.367355
0.367235
0.367069
0.366843
0.366538
0.366133
0.365598
0.364901
0.364005
0.362864
0.361432
0.359659
0.357491
0.35488
0.351781
0.348158
0.34399
0.339273
0.334027
0.328294
0.322143
0.315671
0.308995
0.302253
0.295594
0.289171
0.28313
0.277604
0.272699
0.268486
0.264994
0.262207
0.260067
0.258483
0.257353
0.256571
0.256045
0.2557
0.25548
0.255342
0.255257
0.255207
0.255178
0.255163
0.255154
0.25515
0.255149
0.255148
0.255148
0.255148
0.255148
0.255149
0.25515
0.255151
0.255151
0.255152
0.255152
0.255152
0.255152
0.255151
0.255151
0.255151
0.25515
0.25515
0.255149
0.255149
0.255148
0.255148
0.255147
0.255147
0.255146
0.255146
0.255146
0.255145
0.255145
0.255145
0.255144
0.255144
0.255144
0.255143
0.255143
0.255143
0.255143
0.255142
0.255142
0.255142
0.255142
0.255141
0.255141
0.255141
0.255141
0.255141
0.25514
0.25514
0.25514
0.25514
0.25514
0.255139
0.255139
0.255139
0.255139
0.255139
0.255139
0.255138
0.255138
0.255138
0.255138
0.255138
0.255138
0.255138
0.255137
0.255137
0.255137
0.255137
0.255137
0.255137
0.255137
0.255136
0.255136
0.255136
0.255136
0.255136
0.255136
0.255136
0.255135
0.255135
0.255135
0.255135
0.255135
0.255135
0.255135
0.255135
0.255134
0.255134
0.255134
0.255134
0.255134
0.255134
0.255134
0.255134
0.255133
0.255133
0.255133
0.255133
0.255133
0.255133
0.255133
0.255132
0.255132
0.255132
0.255132
0.255132
0.255132
0.255132
0.255132
0.255131
0.255131
0.255131
0.255131
0.255131
0.255131
0.255131
0.25513
0.25513
0.25513
0.25513
0.25513
0.25513
0.25513
0.255129
0.255129
0.255129
0.255129
0.255129
0.255129
0.255128
0.255128
0.255128
0.255128
0.255128
0.255128
0.255128
0.255127
0.255127
0.255126
0.255127
0.255126
0.255127
0.255124
0.255127
0.255121
0.255128
0.255116
0.255131
0.255104
0.255136
0.255071
0.255133
0.254973
0.255085
0.25467
0.254785
0.253662
0.253377
0.24976
0.247574
0.235339
0.223522
0.187721
0.144706
0.12154
0.11722
0.11648
0.11636
0.116341
0.116338
0.116337
0.116337
0.116337
0.116337
0.116337
0.116337
0.116337
0.116337
0.116337
0.116337
0.116337
0.116337
0.116337
0.116337
0.116337
0.116337
0.116337
0.116337
0.116337
0.116337
0.116337
0.116337
0.116337
0.116337
0.116337
0.116337
0.116337
0.116337
0.116337
0.116337
0.116337
0.116337
0.116337
0.116337
0.116337
0.116337
0.116337
0.116337
0.116337
0.116337
0.116337
0.116337
0.116337
0.116337
0.116337
0.116337
0.116337
0.116337
0.116337
0.116337
0.116337
0.116337
0.116337
0.116337
0.116337
0.116337
0.116337
0.116337
0.116337
0.116337
0.116337
0.116337
0.116337
0.116337
0.116337
0.116337
0.116337
0.116337
0.116337
0.116337
0.116337
0.116337
0.116337
0.116337
0.116337
0.116337
0.116337
0.116337
0.116337
0.116337
0.116337
0.116337
0.116337
)
;

boundaryField
{
    sides
    {
        type            calculated;
        value           nonuniform List<scalar> 2(0.116337 0.995488);
    }
    empty
    {
        type            empty;
    }
}


// ************************************************************************* //
