/*--------------------------------*- C++ -*----------------------------------*\
  =========                 |
  \\      /  F ield         | OpenFOAM: The Open Source CFD Toolbox
   \\    /   O peration     | Website:  https://openfoam.org
    \\  /    A nd           | Version:  13
     \\/     M anipulation  |
\*---------------------------------------------------------------------------*/
FoamFile
{
    format      ascii;
    class       volScalarField;
    location    "0.007";
    object      T;
}
// * * * * * * * * * * * * * * * * * * * * * * * * * * * * * * * * * * * * * //

dimensions      [0 0 0 1 0 0 0];

internalField   nonuniform List<scalar> 
1000
(
348.432
348.432
348.432
348.432
348.432
348.432
348.432
348.432
348.432
348.432
348.432
348.432
348.432
348.432
348.432
348.432
348.432
348.432
348.432
348.432
348.432
348.432
348.432
348.432
348.432
348.432
348.432
348.432
348.432
348.432
348.432
348.432
348.432
348.432
348.432
348.432
348.432
348.432
348.432
348.432
348.432
348.432
348.432
348.432
348.432
348.432
348.432
348.432
348.432
348.432
348.432
348.432
348.432
348.432
348.432
348.432
348.432
348.432
348.432
348.432
348.432
348.432
348.432
348.432
348.432
348.432
348.432
348.432
348.432
348.432
348.432
348.432
348.432
348.432
348.432
348.432
348.432
348.432
348.432
348.432
348.432
348.432
348.432
348.432
348.432
348.432
348.432
348.432
348.432
348.432
348.432
348.432
348.432
348.432
348.432
348.432
348.432
348.432
348.432
348.432
348.432
348.432
348.432
348.432
348.432
348.432
348.432
348.432
348.432
348.432
348.432
348.432
348.432
348.432
348.432
348.432
348.432
348.432
348.432
348.432
348.432
348.432
348.432
348.432
348.432
348.432
348.432
348.432
348.432
348.432
348.432
348.432
348.432
348.432
348.432
348.432
348.432
348.432
348.432
348.432
348.432
348.432
348.432
348.432
348.432
348.432
348.432
348.432
348.432
348.432
348.432
348.432
348.432
348.432
348.432
348.432
348.432
348.432
348.432
348.432
348.432
348.432
348.432
348.432
348.432
348.432
348.432
348.432
348.432
348.432
348.432
348.432
348.432
348.432
348.432
348.432
348.432
348.432
348.432
348.432
348.432
348.432
348.432
348.432
348.432
348.432
348.432
348.432
348.432
348.432
348.432
348.432
348.432
348.432
348.432
348.432
348.432
348.432
348.432
348.432
348.432
348.432
348.432
348.432
348.432
348.432
348.432
348.432
348.432
348.432
348.432
348.432
348.431
348.431
348.43
348.429
348.427
348.424
348.419
348.412
348.401
348.386
348.365
348.337
348.298
348.248
348.185
348.107
348.013
347.902
347.773
347.626
347.461
347.278
347.078
346.861
346.629
346.381
346.119
345.845
345.558
345.26
344.951
344.633
344.307
343.972
343.631
343.283
342.928
342.569
342.204
341.835
341.462
341.084
340.704
340.32
339.934
339.544
339.153
338.759
338.363
337.965
337.566
337.165
336.763
336.359
335.954
335.548
335.142
334.734
334.325
333.915
333.505
333.094
332.683
332.271
331.858
331.446
331.032
330.618
330.204
329.79
329.375
328.96
328.545
328.13
327.714
327.299
326.883
326.467
326.051
325.635
325.219
324.802
324.386
323.97
323.554
323.138
322.722
322.305
321.889
321.473
321.058
320.642
320.226
319.811
319.395
318.98
318.565
318.15
317.735
317.321
316.906
316.492
316.078
315.665
315.251
314.838
314.425
314.013
313.601
313.189
312.778
312.367
311.956
311.546
311.137
310.728
310.319
309.912
309.505
309.098
308.693
308.289
307.885
307.483
307.082
306.683
306.285
305.889
305.495
305.104
304.716
304.33
303.949
303.572
303.201
302.836
302.478
302.129
301.791
301.465
301.153
300.857
300.581
300.325
300.092
299.884
299.701
299.545
299.413
299.306
299.22
299.154
299.104
299.067
299.042
299.025
299.013
299.007
299.003
299.001
299
299
299
299
299
299
299
299
299
299
299
299
299
299
299
299
299
299
299
299
299
299
299
299
299
299
299
299
299
299
299
299
299
299
299
299
299
299
299
299
299
299
299
299
299
299
299
299
299
299
299
299
299
299
299
299
299
299
299
299
299
299
299
299
299
299
299
299
299
299
299
299
299
299
299
299
299
299
299
299
299
299
299
299
299
299
299
299
299
299
299
299
299
299
299
299
299
299
299
299
299
299
299
299
299
299
299
299
299
299
299
299
299
299
299
299
299
299
299
299
299
299
299
299
299
299
299
299
299
299
299
299
299
299
299
299
299
299
299
299
299
299
299
299
299
299
299
299
299
299
299
299
299
299
299
299
299
299
299.001
299.001
299.002
299.002
299.002
299.002
299.002
299.002
299.002
299.002
299.002
299.002
299.002
299.002
299.002
299.002
299.002
299.002
299.002
299.002
299.002
299.002
299.002
299.002
299.002
299.002
299.002
299.002
299.002
299.002
299.002
299.002
299.002
299.002
299.002
299.002
299.002
299.002
299.002
299.002
299.002
299.002
299.002
299.002
299.002
299.002
299.002
299.002
299.002
299.002
299.002
299.002
299.002
299.002
299.002
299.002
299.002
299.002
299.002
299.002
299.002
299.002
299.002
299.002
299.002
299.002
299.002
299.002
299.002
299.003
299.003
299.003
299.003
299.003
299.003
299.003
299.003
299.003
299.003
299.003
299.003
299.003
299.003
299.003
299.003
299.003
299.003
299.003
299.003
299.003
299.003
299.003
299.003
299.003
299.004
299.004
299.004
299.004
299.004
299.004
299.004
299.004
299.004
299.004
299.004
299.004
299.004
299.005
299.005
299.005
299.005
299.005
299.006
299.006
299.006
299.006
299.006
299.007
299.007
299.007
299.007
299.008
299.008
299.008
299.008
299.009
299.009
299.009
299.01
299.01
299.01
299.01
299.011
299.011
299.011
299.012
299.012
299.012
299.013
299.013
299.014
299.014
299.014
299.015
299.015
299.016
299.016
299.016
299.017
299.017
299.018
299.018
299.019
299.019
299.02
299.02
299.021
299.022
299.023
299.024
299.025
299.027
299.03
299.034
299.04
299.049
299.061
299.078
299.104
299.139
299.19
299.261
299.359
299.494
299.678
299.927
300.259
300.699
301.273
302.015
302.965
304.165
305.666
307.521
309.785
312.517
315.771
319.601
324.048
329.143
334.896
341.294
348.296
355.823
363.761
371.955
380.214
388.321
396.043
403.159
409.477
414.866
419.271
422.718
425.306
427.173
428.475
429.355
429.933
430.304
430.536
430.678
430.763
430.811
430.838
430.852
430.859
430.862
430.862
430.862
430.862
430.861
430.86
430.859
430.857
430.856
430.856
430.855
430.855
430.855
430.856
430.856
430.856
430.857
430.858
430.858
430.859
430.86
430.861
430.862
430.862
430.863
430.863
430.864
430.865
430.865
430.866
430.866
430.866
430.867
430.867
430.868
430.868
430.868
430.869
430.869
430.869
430.869
430.87
430.87
430.87
430.87
430.871
430.871
430.871
430.871
430.871
430.872
430.872
430.872
430.872
430.872
430.872
430.873
430.873
430.873
430.873
430.873
430.873
430.873
430.873
430.874
430.874
430.874
430.874
430.874
430.874
430.874
430.874
430.874
430.874
430.874
430.875
430.875
430.875
430.875
430.875
430.875
430.875
430.875
430.875
430.875
430.875
430.875
430.875
430.875
430.875
430.875
430.875
430.875
430.876
430.876
430.876
430.876
430.876
430.876
430.876
430.876
430.876
430.876
430.876
430.876
430.876
430.876
430.876
430.876
430.876
430.876
430.876
430.876
430.876
430.876
430.876
430.876
430.876
430.876
430.876
430.876
430.876
430.876
430.876
430.875
430.875
430.875
430.875
430.875
430.875
430.875
430.875
430.875
430.875
430.875
430.875
430.875
430.875
430.875
430.875
430.874
430.875
430.873
430.875
430.871
430.876
430.868
430.878
430.861
430.881
430.839
430.879
430.777
430.847
430.584
430.643
429.926
429.699
427.408
425.684
417.719
407.841
378.435
333.798
304.886
299.939
299.148
299.023
299.004
299.001
299
299
299
299
299
299
299
299
299
299
299
299
299
299
299
299
299
299
299
299
299
299
299
299
299
299
299
299
299
299
299
299
299
299
299
299
299
299
299
299
299
299
299
299
299
299
299
299
299
299
299
299
299
299
299
299
299
299
299
299
299
299
299
299
299
299
299
299
299
299
299
299
299
299
299
299
299
299
299
299
299
299
299
)
;

boundaryField
{
    sides
    {
        type            zeroGradient;
    }
    empty
    {
        type            empty;
    }
}


// ************************************************************************* //
