/*--------------------------------*- C++ -*----------------------------------*\
  =========                 |
  \\      /  F ield         | OpenFOAM: The Open Source CFD Toolbox
   \\    /   O peration     | Website:  https://openfoam.org
    \\  /    A nd           | Version:  13
     \\/     M anipulation  |
\*---------------------------------------------------------------------------*/
FoamFile
{
    format      ascii;
    class       volVectorField;
    location    "0.007";
    object      U;
}
// * * * * * * * * * * * * * * * * * * * * * * * * * * * * * * * * * * * * * //

dimensions      [0 1 -1 0 0 0 0];

internalField   nonuniform List<vector> 
1000
(
(7.45515e-13 0 0)
(6.87144e-13 0 0)
(8.47792e-13 0 0)
(8.47629e-13 0 0)
(7.30999e-13 0 0)
(5.40815e-13 0 0)
(1.90042e-13 0 0)
(-4.37043e-14 0 0)
(-5.11643e-14 0 0)
(4.3833e-14 0 0)
(-2.2058e-14 0 0)
(-2.0454e-13 0 0)
(-3.29043e-13 0 0)
(-3.06893e-13 0 0)
(-2.4109e-13 0 0)
(-2.19319e-13 0 0)
(-1.82741e-13 0 0)
(-2.85026e-13 0 0)
(-7.25772e-15 0 0)
(7.23223e-15 0 0)
(5.10446e-14 0 0)
(2.91305e-14 0 0)
(-2.04415e-13 0 0)
(-3.28843e-13 0 0)
(-2.77778e-13 0 0)
(-3.36238e-13 0 0)
(-3.94583e-13 0 0)
(-2.92437e-13 0 0)
(-3.43632e-13 0 0)
(-4.16564e-13 0 0)
(-3.50915e-13 0 0)
(-6.13883e-13 0 0)
(-6.28469e-13 0 0)
(-6.7233e-13 0 0)
(-2.92435e-13 0 0)
(-1.7556e-13 0 0)
(-2.84943e-13 0 0)
(-2.41343e-13 0 0)
(-2.9955e-13 0 0)
(-2.48414e-13 0 0)
(-2.26603e-13 0 0)
(-1.38875e-13 0 0)
(-5.11853e-14 0 0)
(-6.57857e-14 0 0)
(-1.82709e-13 0 0)
(-1.31679e-13 0 0)
(-2.7785e-13 0 0)
(-3.72545e-13 0 0)
(-2.92264e-13 0 0)
(-1.75387e-13 0 0)
(2.04547e-13 0 0)
(1.68181e-13 0 0)
(2.62991e-13 0 0)
(-3.65849e-14 0 0)
(-6.58096e-14 0 0)
(-5.85942e-14 0 0)
(-8.7534e-14 0 0)
(-2.18069e-14 0 0)
(-2.48373e-13 0 0)
(1.89868e-13 0 0)
(2.11792e-13 0 0)
(1.75479e-13 0 0)
(1.5349e-13 0 0)
(8.78009e-14 0 0)
(1.90019e-13 0 0)
(5.1148e-14 0 0)
(1.24363e-13 0 0)
(2.92366e-13 0 0)
(3.50606e-13 0 0)
(9.52482e-14 0 0)
(2.40975e-13 0 0)
(1.45917e-13 0 0)
(-1.96973e-13 0 0)
(-1.38701e-13 0 0)
(-7.31222e-14 0 0)
(3.63504e-14 0 0)
(-1.97196e-13 0 0)
(-5.86391e-14 0 0)
(-1.46122e-13 0 0)
(-2.19223e-14 0 0)
(-2.21688e-14 0 0)
(-2.33704e-13 0 0)
(-2.92111e-13 0 0)
(4.37769e-14 0 0)
(2.41021e-13 0 0)
(5.126e-14 0 0)
(7.30228e-14 0 0)
(-8.91187e-17 0 0)
(-1.67973e-13 0 0)
(-2.19298e-14 0 0)
(-1.82645e-13 0 0)
(-5.11382e-14 0 0)
(2.85036e-13 0 0)
(4.23735e-13 0 0)
(3.21634e-13 0 0)
(3.72789e-13 0 0)
(4.01814e-13 0 0)
(2.70547e-13 0 0)
(1.97494e-13 0 0)
(3.94657e-13 0 0)
(7.16126e-13 0 0)
(5.70245e-13 0 0)
(4.60435e-13 0 0)
(5.84549e-13 0 0)
(3.94677e-13 0 0)
(1.90245e-13 0 0)
(3.36179e-13 0 0)
(4.89722e-13 0 0)
(5.84672e-13 0 0)
(5.99313e-13 0 0)
(6.35937e-13 0 0)
(7.74565e-13 0 0)
(5.70096e-13 0 0)
(3.72916e-13 0 0)
(4.67786e-13 0 0)
(5.9927e-13 0 0)
(5.70169e-13 0 0)
(5.99272e-13 0 0)
(5.26208e-13 0 0)
(4.09286e-13 0 0)
(3.07016e-13 0 0)
(2.77735e-13 0 0)
(1.97412e-13 0 0)
(2.4107e-13 0 0)
(1.90168e-13 0 0)
(2.19141e-13 0 0)
(1.75549e-13 0 0)
(2.26505e-13 0 0)
(7.30988e-14 0 0)
(6.5752e-14 0 0)
(2.19121e-14 0 0)
(-7.31008e-14 0 0)
(-1.89909e-13 0 0)
(-8.044e-14 0 0)
(-3.6537e-14 0 0)
(1.4632e-14 0 0)
(7.29771e-14 0 0)
(3.65537e-14 0 0)
(1.14205e-16 0 0)
(5.8483e-14 0 0)
(1.46055e-13 0 0)
(1.024e-13 0 0)
(1.02312e-13 0 0)
(8.03971e-14 0 0)
(1.31525e-13 0 0)
(1.17008e-13 0 0)
(1.60691e-13 0 0)
(1.17077e-13 0 0)
(1.82587e-13 0 0)
(1.31683e-13 0 0)
(1.89827e-13 0 0)
(5.86728e-14 0 0)
(1.09524e-13 0 0)
(9.51207e-14 0 0)
(1.46078e-13 0 0)
(8.04641e-14 0 0)
(9.49605e-14 0 0)
(2.92713e-14 0 0)
(2.18618e-14 0 0)
(-5.10648e-14 0 0)
(-2.19222e-14 0 0)
(-2.92281e-17 0 0)
(2.19086e-14 0 0)
(1.47014e-14 0 0)
(6.58022e-14 0 0)
(1.46039e-13 0 0)
(9.5083e-14 0 0)
(1.02301e-13 0 0)
(8.04489e-14 0 0)
(1.31498e-13 0 0)
(1.09714e-13 0 0)
(1.60673e-13 0 0)
(1.09775e-13 0 0)
(1.67967e-13 0 0)
(1.24373e-13 0 0)
(1.82505e-13 0 0)
(7.33457e-14 0 0)
(1.60695e-13 0 0)
(3.94606e-13 0 0)
(7.08949e-13 0 0)
(1.87122e-12 0 0)
(3.90299e-12 0 0)
(8.65374e-12 0 0)
(1.76073e-11 0 0)
(3.6852e-11 0 0)
(7.56186e-11 0 0)
(1.55593e-10 0 0)
(3.15009e-10 0 0)
(6.38124e-10 0 0)
(1.28263e-09 0 0)
(2.56914e-09 0 0)
(5.10905e-09 0 0)
(1.01087e-08 0 0)
(1.98719e-08 0 0)
(3.88325e-08 0 0)
(7.54005e-08 0 0)
(1.45476e-07 0 0)
(2.78837e-07 0 0)
(5.30889e-07 0 0)
(1.00386e-06 0 0)
(1.88495e-06 0 0)
(3.51396e-06 0 0)
(6.50263e-06 0 0)
(1.19423e-05 0 0)
(2.17623e-05 0 0)
(3.93401e-05 0 0)
(7.05298e-05 0 0)
(0.000125372 0 0)
(0.000220895 0 0)
(0.000385651 0 0)
(0.000666908 0 0)
(0.0011419 0 0)
(0.00193504 0 0)
(0.00324361 0 0)
(0.00537522 0 0)
(0.00880049 0 0)
(0.0142242 0 0)
(0.0226764 0 0)
(0.0356205 0 0)
(0.0550688 0 0)
(0.0836842 0 0)
(0.12484 0 0)
(0.182604 0 0)
(0.261624 0 0)
(0.366912 0 0)
(0.503567 0 0)
(0.676456 0 0)
(0.889939 0 0)
(1.14764 0 0)
(1.45231 0 0)
(1.80576 0 0)
(2.20889 0 0)
(2.66174 0 0)
(3.16359 0 0)
(3.71314 0 0)
(4.30856 0 0)
(4.94771 0 0)
(5.62817 0 0)
(6.3474 0 0)
(7.10281 0 0)
(7.89181 0 0)
(8.71188 0 0)
(9.56059 0 0)
(10.4356 0 0)
(11.3349 0 0)
(12.2562 0 0)
(13.1979 0 0)
(14.1581 0 0)
(15.1353 0 0)
(16.1281 0 0)
(17.135 0 0)
(18.155 0 0)
(19.1869 0 0)
(20.2297 0 0)
(21.2825 0 0)
(22.3445 0 0)
(23.415 0 0)
(24.4933 0 0)
(25.5788 0 0)
(26.6708 0 0)
(27.769 0 0)
(28.8729 0 0)
(29.9819 0 0)
(31.0958 0 0)
(32.2142 0 0)
(33.3368 0 0)
(34.4633 0 0)
(35.5934 0 0)
(36.7269 0 0)
(37.8635 0 0)
(39.0031 0 0)
(40.1454 0 0)
(41.2903 0 0)
(42.4376 0 0)
(43.5872 0 0)
(44.7389 0 0)
(45.8926 0 0)
(47.0482 0 0)
(48.2055 0 0)
(49.3645 0 0)
(50.5251 0 0)
(51.6871 0 0)
(52.8505 0 0)
(54.0153 0 0)
(55.1813 0 0)
(56.3484 0 0)
(57.5167 0 0)
(58.686 0 0)
(59.8563 0 0)
(61.0275 0 0)
(62.1996 0 0)
(63.3725 0 0)
(64.5462 0 0)
(65.7206 0 0)
(66.8957 0 0)
(68.0715 0 0)
(69.2479 0 0)
(70.4248 0 0)
(71.6023 0 0)
(72.7803 0 0)
(73.9587 0 0)
(75.1376 0 0)
(76.3168 0 0)
(77.4964 0 0)
(78.6764 0 0)
(79.8566 0 0)
(81.0371 0 0)
(82.2179 0 0)
(83.3988 0 0)
(84.5799 0 0)
(85.7611 0 0)
(86.9423 0 0)
(88.1237 0 0)
(89.3051 0 0)
(90.4864 0 0)
(91.6676 0 0)
(92.8488 0 0)
(94.0298 0 0)
(95.2105 0 0)
(96.3911 0 0)
(97.5712 0 0)
(98.751 0 0)
(99.9303 0 0)
(101.109 0 0)
(102.287 0 0)
(103.465 0 0)
(104.641 0 0)
(105.817 0 0)
(106.992 0 0)
(108.165 0 0)
(109.337 0 0)
(110.507 0 0)
(111.676 0 0)
(112.842 0 0)
(114.006 0 0)
(115.168 0 0)
(116.326 0 0)
(117.481 0 0)
(118.631 0 0)
(119.777 0 0)
(120.917 0 0)
(122.05 0 0)
(123.176 0 0)
(124.293 0 0)
(125.4 0 0)
(126.493 0 0)
(127.572 0 0)
(128.633 0 0)
(129.673 0 0)
(130.688 0 0)
(131.673 0 0)
(132.623 0 0)
(133.531 0 0)
(134.393 0 0)
(135.199 0 0)
(135.945 0 0)
(136.625 0 0)
(137.232 0 0)
(137.765 0 0)
(138.223 0 0)
(138.607 0 0)
(138.922 0 0)
(139.172 0 0)
(139.366 0 0)
(139.512 0 0)
(139.618 0 0)
(139.693 0 0)
(139.744 0 0)
(139.776 0 0)
(139.797 0 0)
(139.808 0 0)
(139.814 0 0)
(139.817 0 0)
(139.82 0 0)
(139.823 0 0)
(139.825 0 0)
(139.829 0 0)
(139.832 0 0)
(139.837 0 0)
(139.843 0 0)
(139.851 0 0)
(139.864 0 0)
(139.884 0 0)
(139.915 0 0)
(139.964 0 0)
(140.043 0 0)
(140.165 0 0)
(140.351 0 0)
(140.623 0 0)
(141.001 0 0)
(141.503 0 0)
(142.132 0 0)
(142.886 0 0)
(143.753 0 0)
(144.715 0 0)
(145.759 0 0)
(146.868 0 0)
(148.032 0 0)
(149.238 0 0)
(150.48 0 0)
(151.75 0 0)
(153.043 0 0)
(154.356 0 0)
(155.684 0 0)
(157.025 0 0)
(158.377 0 0)
(159.739 0 0)
(161.108 0 0)
(162.484 0 0)
(163.866 0 0)
(165.253 0 0)
(166.644 0 0)
(168.038 0 0)
(169.436 0 0)
(170.837 0 0)
(172.24 0 0)
(173.646 0 0)
(175.053 0 0)
(176.463 0 0)
(177.874 0 0)
(179.286 0 0)
(180.699 0 0)
(182.114 0 0)
(183.53 0 0)
(184.947 0 0)
(186.365 0 0)
(187.783 0 0)
(189.202 0 0)
(190.622 0 0)
(192.043 0 0)
(193.464 0 0)
(194.886 0 0)
(196.308 0 0)
(197.731 0 0)
(199.154 0 0)
(200.577 0 0)
(202.001 0 0)
(203.425 0 0)
(204.85 0 0)
(206.275 0 0)
(207.7 0 0)
(209.126 0 0)
(210.551 0 0)
(211.977 0 0)
(213.404 0 0)
(214.83 0 0)
(216.257 0 0)
(217.684 0 0)
(219.111 0 0)
(220.539 0 0)
(221.966 0 0)
(223.394 0 0)
(224.822 0 0)
(226.25 0 0)
(227.678 0 0)
(229.107 0 0)
(230.536 0 0)
(231.964 0 0)
(233.393 0 0)
(234.822 0 0)
(236.252 0 0)
(237.681 0 0)
(239.111 0 0)
(240.54 0 0)
(241.97 0 0)
(243.4 0 0)
(244.83 0 0)
(246.26 0 0)
(247.69 0 0)
(249.12 0 0)
(250.551 0 0)
(251.981 0 0)
(253.411 0 0)
(254.842 0 0)
(256.272 0 0)
(257.703 0 0)
(259.133 0 0)
(260.564 0 0)
(261.994 0 0)
(263.425 0 0)
(264.855 0 0)
(266.285 0 0)
(267.715 0 0)
(269.144 0 0)
(270.574 0 0)
(272.003 0 0)
(273.431 0 0)
(274.859 0 0)
(276.287 0 0)
(277.714 0 0)
(279.14 0 0)
(280.565 0 0)
(281.989 0 0)
(283.411 0 0)
(284.832 0 0)
(286.251 0 0)
(287.668 0 0)
(289.082 0 0)
(290.493 0 0)
(291.903 0 0)
(293.31 0 0)
(294.721 0 0)
(296.132 0 0)
(297.539 0 0)
(298.939 0 0)
(300.332 0 0)
(301.715 0 0)
(303.086 0 0)
(304.444 0 0)
(305.785 0 0)
(307.105 0 0)
(308.4 0 0)
(309.663 0 0)
(310.884 0 0)
(312.052 0 0)
(313.154 0 0)
(314.173 0 0)
(315.093 0 0)
(315.899 0 0)
(316.58 0 0)
(317.13 0 0)
(317.548 0 0)
(317.846 0 0)
(318.04 0 0)
(318.157 0 0)
(318.221 0 0)
(318.255 0 0)
(318.271 0 0)
(318.276 0 0)
(318.276 0 0)
(318.274 0 0)
(318.273 0 0)
(318.273 0 0)
(318.272 0 0)
(318.272 0 0)
(318.272 0 0)
(318.272 0 0)
(318.272 0 0)
(318.272 0 0)
(318.273 0 0)
(318.273 0 0)
(318.273 0 0)
(318.274 0 0)
(318.274 0 0)
(318.274 0 0)
(318.274 0 0)
(318.275 0 0)
(318.275 0 0)
(318.275 0 0)
(318.276 0 0)
(318.276 0 0)
(318.276 0 0)
(318.277 0 0)
(318.277 0 0)
(318.277 0 0)
(318.277 0 0)
(318.277 0 0)
(318.278 0 0)
(318.278 0 0)
(318.278 0 0)
(318.278 0 0)
(318.278 0 0)
(318.278 0 0)
(318.279 0 0)
(318.279 0 0)
(318.279 0 0)
(318.279 0 0)
(318.279 0 0)
(318.279 0 0)
(318.279 0 0)
(318.28 0 0)
(318.28 0 0)
(318.28 0 0)
(318.28 0 0)
(318.28 0 0)
(318.28 0 0)
(318.28 0 0)
(318.28 0 0)
(318.281 0 0)
(318.281 0 0)
(318.281 0 0)
(318.281 0 0)
(318.281 0 0)
(318.281 0 0)
(318.281 0 0)
(318.281 0 0)
(318.281 0 0)
(318.281 0 0)
(318.282 0 0)
(318.282 0 0)
(318.282 0 0)
(318.282 0 0)
(318.282 0 0)
(318.282 0 0)
(318.282 0 0)
(318.282 0 0)
(318.282 0 0)
(318.282 0 0)
(318.282 0 0)
(318.282 0 0)
(318.282 0 0)
(318.282 0 0)
(318.283 0 0)
(318.283 0 0)
(318.283 0 0)
(318.283 0 0)
(318.283 0 0)
(318.283 0 0)
(318.283 0 0)
(318.283 0 0)
(318.283 0 0)
(318.283 0 0)
(318.283 0 0)
(318.283 0 0)
(318.283 0 0)
(318.283 0 0)
(318.283 0 0)
(318.283 0 0)
(318.283 0 0)
(318.283 0 0)
(318.283 0 0)
(318.283 0 0)
(318.283 0 0)
(318.283 0 0)
(318.283 0 0)
(318.283 0 0)
(318.283 0 0)
(318.283 0 0)
(318.284 0 0)
(318.284 0 0)
(318.284 0 0)
(318.284 0 0)
(318.284 0 0)
(318.284 0 0)
(318.284 0 0)
(318.284 0 0)
(318.284 0 0)
(318.284 0 0)
(318.284 0 0)
(318.284 0 0)
(318.284 0 0)
(318.284 0 0)
(318.284 0 0)
(318.284 0 0)
(318.284 0 0)
(318.284 0 0)
(318.284 0 0)
(318.284 0 0)
(318.284 0 0)
(318.284 0 0)
(318.284 0 0)
(318.284 0 0)
(318.284 0 0)
(318.284 0 0)
(318.284 0 0)
(318.284 0 0)
(318.284 0 0)
(318.284 0 0)
(318.284 0 0)
(318.284 0 0)
(318.284 0 0)
(318.284 0 0)
(318.284 0 0)
(318.284 0 0)
(318.284 0 0)
(318.284 0 0)
(318.284 0 0)
(318.284 0 0)
(318.284 0 0)
(318.284 0 0)
(318.284 0 0)
(318.284 0 0)
(318.284 0 0)
(318.284 0 0)
(318.284 0 0)
(318.284 0 0)
(318.284 0 0)
(318.284 0 0)
(318.284 0 0)
(318.284 0 0)
(318.284 0 0)
(318.284 0 0)
(318.284 0 0)
(318.284 0 0)
(318.283 0 0)
(318.283 0 0)
(318.283 0 0)
(318.283 0 0)
(318.283 0 0)
(318.283 0 0)
(318.283 0 0)
(318.283 0 0)
(318.283 0 0)
(318.283 0 0)
(318.283 0 0)
(318.283 0 0)
(318.283 0 0)
(318.283 0 0)
(318.283 0 0)
(318.283 0 0)
(318.283 0 0)
(318.283 0 0)
(318.283 0 0)
(318.283 0 0)
(318.283 0 0)
(318.283 0 0)
(318.283 0 0)
(318.283 0 0)
(318.283 0 0)
(318.283 0 0)
(318.284 0 0)
(318.284 0 0)
(318.285 0 0)
(318.286 0 0)
(318.287 0 0)
(318.289 0 0)
(318.292 0 0)
(318.295 0 0)
(318.299 0 0)
(318.303 0 0)
(318.307 0 0)
(318.311 0 0)
(318.315 0 0)
(318.317 0 0)
(318.319 0 0)
(318.319 0 0)
(318.318 0 0)
(318.315 0 0)
(318.311 0 0)
(318.307 0 0)
(318.303 0 0)
(318.299 0 0)
(318.297 0 0)
(318.295 0 0)
(318.295 0 0)
(318.294 0 0)
(318.294 0 0)
(318.294 0 0)
(318.294 0 0)
(318.294 0 0)
(318.294 0 0)
(318.294 0 0)
(318.294 0 0)
(318.293 0 0)
(318.294 0 0)
(318.293 0 0)
(318.293 0 0)
(318.293 0 0)
(318.293 0 0)
(318.293 0 0)
(318.293 0 0)
(318.293 0 0)
(318.293 0 0)
(318.293 0 0)
(318.293 0 0)
(318.293 0 0)
(318.293 0 0)
(318.293 0 0)
(318.293 0 0)
(318.292 0 0)
(318.292 0 0)
(318.292 0 0)
(318.292 0 0)
(318.292 0 0)
(318.292 0 0)
(318.292 0 0)
(318.292 0 0)
(318.292 0 0)
(318.292 0 0)
(318.292 0 0)
(318.292 0 0)
(318.292 0 0)
(318.292 0 0)
(318.292 0 0)
(318.292 0 0)
(318.292 0 0)
(318.291 0 0)
(318.291 0 0)
(318.291 0 0)
(318.291 0 0)
(318.291 0 0)
(318.291 0 0)
(318.291 0 0)
(318.291 0 0)
(318.291 0 0)
(318.291 0 0)
(318.291 0 0)
(318.291 0 0)
(318.291 0 0)
(318.291 0 0)
(318.291 0 0)
(318.29 0 0)
(318.29 0 0)
(318.29 0 0)
(318.29 0 0)
(318.29 0 0)
(318.29 0 0)
(318.29 0 0)
(318.29 0 0)
(318.29 0 0)
(318.29 0 0)
(318.29 0 0)
(318.29 0 0)
(318.29 0 0)
(318.289 0 0)
(318.289 0 0)
(318.289 0 0)
(318.289 0 0)
(318.289 0 0)
(318.289 0 0)
(318.289 0 0)
(318.289 0 0)
(318.289 0 0)
(318.289 0 0)
(318.289 0 0)
(318.289 0 0)
(318.288 0 0)
(318.288 0 0)
(318.288 0 0)
(318.288 0 0)
(318.288 0 0)
(318.288 0 0)
(318.288 0 0)
(318.288 0 0)
(318.288 0 0)
(318.288 0 0)
(318.287 0 0)
(318.287 0 0)
(318.287 0 0)
(318.287 0 0)
(318.287 0 0)
(318.287 0 0)
(318.287 0 0)
(318.287 0 0)
(318.287 0 0)
(318.286 0 0)
(318.286 0 0)
(318.286 0 0)
(318.286 0 0)
(318.286 0 0)
(318.286 0 0)
(318.286 0 0)
(318.286 0 0)
(318.285 0 0)
(318.285 0 0)
(318.285 0 0)
(318.285 0 0)
(318.285 0 0)
(318.285 0 0)
(318.285 0 0)
(318.285 0 0)
(318.284 0 0)
(318.284 0 0)
(318.284 0 0)
(318.284 0 0)
(318.284 0 0)
(318.284 0 0)
(318.283 0 0)
(318.283 0 0)
(318.283 0 0)
(318.283 0 0)
(318.283 0 0)
(318.283 0 0)
(318.282 0 0)
(318.282 0 0)
(318.282 0 0)
(318.282 0 0)
(318.282 0 0)
(318.282 0 0)
(318.281 0 0)
(318.281 0 0)
(318.281 0 0)
(318.281 0 0)
(318.281 0 0)
(318.28 0 0)
(318.28 0 0)
(318.28 0 0)
(318.28 0 0)
(318.28 0 0)
(318.279 0 0)
(318.279 0 0)
(318.279 0 0)
(318.278 0 0)
(318.278 0 0)
(318.278 0 0)
(318.278 0 0)
(318.276 0 0)
(318.278 0 0)
(318.274 0 0)
(318.278 0 0)
(318.271 0 0)
(318.278 0 0)
(318.266 0 0)
(318.281 0 0)
(318.256 0 0)
(318.282 0 0)
(318.232 0 0)
(318.269 0 0)
(318.161 0 0)
(318.192 0 0)
(317.936 0 0)
(317.847 0 0)
(317.248 0 0)
(316.342 0 0)
(314.879 0 0)
(309.986 0 0)
(305.168 0 0)
(285.415 0 0)
(262.441 0 0)
(192.159 0 0)
(86.049 0 0)
(15.9463 0 0)
(2.66323 0 0)
(0.426519 0 0)
(0.0680067 0 0)
(0.0108367 0 0)
(0.00172655 0 0)
(0.000275081 0 0)
(4.38272e-05 0 0)
(6.98276e-06 0 0)
(1.11252e-06 0 0)
(1.77252e-07 0 0)
(2.8242e-08 0 0)
(4.49888e-09 0 0)
(7.18502e-10 0 0)
(1.14511e-10 0 0)
(1.93503e-11 0 0)
(4.11822e-12 0 0)
(1.1046e-12 0 0)
(7.58404e-13 0 0)
(7.50313e-13 0 0)
(6.9622e-13 0 0)
(8.06295e-13 0 0)
(1.08611e-12 0 0)
(1.49905e-12 0 0)
(1.32279e-12 0 0)
(1.37508e-12 0 0)
(1.25038e-12 0 0)
(1.07092e-12 0 0)
(9.15018e-13 0 0)
(8.29282e-13 0 0)
(8.59862e-13 0 0)
(8.36312e-13 0 0)
(9.60172e-13 0 0)
(8.84408e-13 0 0)
(8.04737e-13 0 0)
(6.10743e-13 0 0)
(7.27727e-13 0 0)
(9.53152e-13 0 0)
(8.36922e-13 0 0)
(1.063e-12 0 0)
(1.20357e-12 0 0)
(1.33492e-12 0 0)
(1.14314e-12 0 0)
(1.1648e-12 0 0)
(1.07083e-12 0 0)
(8.37508e-13 0 0)
(1.08576e-12 0 0)
(9.23008e-13 0 0)
(1.01644e-12 0 0)
(1.13336e-12 0 0)
(1.07033e-12 0 0)
(8.21028e-13 0 0)
(7.4266e-13 0 0)
(6.17182e-13 0 0)
(4.38587e-13 0 0)
(5.4028e-13 0 0)
(7.26523e-13 0 0)
(8.42414e-13 0 0)
(4.08329e-13 0 0)
(6.79883e-13 0 0)
(7.27219e-13 0 0)
(8.44802e-13 0 0)
(1.08576e-12 0 0)
(1.04001e-12 0 0)
(1.17331e-12 0 0)
(1.21906e-12 0 0)
(1.06952e-12 0 0)
(8.53546e-13 0 0)
(1.00064e-12 0 0)
(1.14905e-12 0 0)
(1.32948e-12 0 0)
(1.64204e-12 0 0)
(1.74334e-12 0 0)
(1.68833e-12 0 0)
(1.72013e-12 0 0)
(2.04756e-12 0 0)
(1.89172e-12 0 0)
(1.92341e-12 0 0)
(1.86047e-12 0 0)
(1.76732e-12 0 0)
(1.9388e-12 0 0)
(2.02477e-12 0 0)
(2.00816e-12 0 0)
(2.05746e-12 0 0)
(2.46189e-12 0 0)
(2.51712e-12 0 0)
(2.40075e-12 0 0)
(2.53238e-12 0 0)
(2.40798e-12 0 0)
)
;

boundaryField
{
    sides
    {
        type            zeroGradient;
    }
    empty
    {
        type            empty;
    }
}


// ************************************************************************* //
