# Probe 0 (0 0 0)
# Time        0            
0             12000        
0.001         12182.8      
