# Probe 0 (0 0 0)
# Time        0            
0             2000         
0.001         2000         
