/*--------------------------------*- C++ -*----------------------------------*\
  =========                 |
  \\      /  F ield         | OpenFOAM: The Open Source CFD Toolbox
   \\    /   O peration     | Website:  https://openfoam.org
    \\  /    A nd           | Version:  13
     \\/     M anipulation  |
\*---------------------------------------------------------------------------*/
FoamFile
{
    format      ascii;
    class       volScalarField;
    location    "0.006";
    object      mag(U);
}
// * * * * * * * * * * * * * * * * * * * * * * * * * * * * * * * * * * * * * //

dimensions      [0 1 -1 0 0 0 0];

internalField   nonuniform List<scalar> 
1000
(
7.30742e-15
9.51024e-14
1.75403e-13
1.45979e-13
1.60896e-13
7.30652e-14
7.29308e-15
5.12969e-14
1.24264e-13
8.76895e-14
1.16805e-13
1.09761e-13
6.56253e-14
2.18549e-14
1.47145e-14
1.16899e-13
1.68089e-13
1.02324e-13
2.18279e-14
7.29947e-14
1.24153e-13
1.24327e-13
4.52947e-13
5.40842e-13
4.89729e-13
3.143e-13
3.28849e-13
4.38842e-14
5.12827e-14
6.57358e-14
1.60834e-13
3.21559e-13
3.21499e-13
3.14261e-13
1.46214e-13
1.0974e-13
2.92271e-13
3.72894e-13
4.38443e-13
3.72665e-13
1.82753e-13
2.48512e-13
2.11963e-13
1.24236e-13
1.75431e-13
6.58718e-14
5.12738e-14
1.24074e-13
1.24163e-13
1.75426e-13
2.19962e-14
1.3895e-13
3.94612e-13
2.26501e-13
1.68084e-13
3.66321e-14
3.1415e-13
4.16494e-13
1.7536e-13
2.26477e-13
1.46041e-13
7.36944e-15
8.03957e-14
1.53423e-13
1.09632e-13
1.31573e-13
1.38803e-13
2.92515e-14
2.19111e-13
4.40181e-14
2.55647e-13
1.67891e-13
1.60507e-13
1.24093e-13
5.85013e-14
1.47718e-14
6.56784e-14
1.38727e-13
8.77275e-14
1.90057e-13
2.62957e-13
9.4882e-14
1.97172e-13
5.11019e-14
2.84951e-13
1.02388e-13
1.38821e-13
4.37807e-14
1.53411e-13
5.11146e-14
1.68082e-13
1.4634e-14
2.63146e-13
4.23786e-13
3.21609e-13
3.65485e-13
3.65299e-13
2.26674e-13
1.90134e-13
3.87357e-13
5.48089e-13
3.58235e-13
3.94649e-13
5.04213e-13
2.70425e-13
7.46252e-15
1.60758e-13
2.266e-13
3.94651e-13
4.53142e-13
5.55522e-13
5.62669e-13
3.28905e-13
8.04971e-14
1.75427e-13
3.06937e-13
2.48562e-13
2.8501e-13
2.33853e-13
2.11949e-13
1.31593e-13
6.57706e-14
7.36717e-15
4.37513e-14
1.47307e-14
5.106e-14
5.10438e-14
2.20042e-14
6.57918e-14
6.57632e-14
2.19232e-14
7.3099e-14
1.89952e-13
8.04306e-14
3.65382e-14
1.46321e-14
7.29961e-14
3.65528e-14
9.61301e-17
5.84779e-14
1.46078e-13
1.02394e-13
1.02315e-13
8.03839e-14
1.31536e-13
1.16999e-13
1.60707e-13
1.17058e-13
1.82607e-13
1.31666e-13
1.8986e-13
5.86401e-14
1.09534e-13
9.51102e-14
1.46098e-13
8.04535e-14
9.49711e-14
2.92624e-14
2.18739e-14
5.10847e-14
2.19221e-14
2.87188e-17
2.19128e-14
1.46911e-14
6.57976e-14
1.46063e-13
9.50743e-14
1.02306e-13
8.04358e-14
1.3151e-13
1.09702e-13
1.60691e-13
1.09755e-13
1.75296e-13
1.24356e-13
1.82538e-13
5.13794e-14
1.38783e-13
1.38804e-13
8.03786e-14
7.20293e-15
2.19227e-14
3.64779e-14
2.92525e-14
8.75967e-14
2.19262e-14
7.25557e-15
1.45964e-14
2.19694e-14
1.45817e-14
1.4569e-14
1.46858e-14
5.84567e-14
1.38777e-13
5.86843e-14
2.48446e-13
3.36122e-13
3.58068e-13
2.55899e-13
3.14083e-13
6.58863e-14
7.41158e-15
1.16896e-13
3.66158e-14
1.02313e-13
1.97259e-13
1.09657e-13
2.48491e-13
2.33987e-13
3.65379e-13
3.06953e-13
3.21628e-13
3.80153e-13
4.09171e-13
2.99672e-13
3.36205e-13
3.72821e-13
2.41135e-13
5.11979e-14
5.99188e-13
1.38873e-12
3.32574e-12
7.56482e-12
1.64524e-11
3.53391e-11
7.47268e-11
1.57384e-10
3.29752e-10
6.87562e-10
1.42271e-09
2.93087e-09
5.99351e-09
1.21877e-08
2.46132e-08
4.93877e-08
9.84196e-08
1.94789e-07
3.82783e-07
7.46801e-07
1.44619e-06
2.77938e-06
5.30004e-06
1.00261e-05
1.88107e-05
3.49941e-05
6.45336e-05
0.000117938
0.000213532
0.000382879
0.000679653
0.00119386
0.00207423
0.00356255
0.00604504
0.0101266
0.0167337
0.0272493
0.0436774
0.0688196
0.106431
0.161304
0.239208
0.346673
0.49059
0.677737
0.914286
1.20542
1.55506
1.96576
2.43874
2.97398
3.57037
4.22599
4.93822
5.70404
6.52009
7.38293
8.28905
9.23504
10.2176
11.2336
12.2801
13.3545
14.4541
15.5767
16.7203
17.8828
19.0627
20.2583
21.4682
22.6912
23.9261
25.1719
26.4277
27.6926
28.9658
30.2467
31.5347
32.8292
34.1297
35.4358
36.7469
38.0628
39.3831
40.7074
42.0356
43.3672
44.7022
46.0402
47.381
48.7245
50.0705
51.4188
52.7692
54.1218
55.4762
56.8323
58.1902
59.5496
60.9105
62.2727
63.6363
65.001
66.3668
67.7337
69.1016
70.4703
71.8399
73.2103
74.5813
75.953
77.3253
78.6981
80.0714
81.4451
82.8191
84.1934
85.5679
86.9426
88.3174
89.6921
91.0669
92.4415
93.8158
95.1899
96.5635
97.9367
99.3092
100.681
102.052
103.421
104.79
106.157
107.522
108.885
110.246
111.604
112.959
114.31
115.657
116.999
118.335
119.664
120.984
122.294
123.592
124.876
126.143
127.388
128.608
129.798
130.95
132.059
133.115
134.11
135.035
135.882
136.642
137.311
137.886
138.367
138.759
139.069
139.306
139.482
139.608
139.694
139.751
139.787
139.808
139.819
139.825
139.829
139.833
139.838
139.845
139.854
139.868
139.89
139.925
139.984
140.08
140.233
140.469
140.818
141.307
141.953
142.758
143.712
144.797
145.989
147.269
148.62
150.026
151.477
152.963
154.477
156.015
157.571
159.142
160.726
162.321
163.924
165.536
167.153
168.776
170.403
172.035
173.67
175.308
176.949
178.592
180.238
181.885
183.534
185.185
186.837
188.49
190.144
191.799
193.455
195.113
196.77
198.429
200.088
201.748
203.409
205.07
206.731
208.393
210.055
211.718
213.382
215.045
216.709
218.373
220.038
221.703
223.368
225.034
226.7
228.366
230.032
231.699
233.366
235.033
236.7
238.368
240.036
241.704
243.372
245.04
246.708
248.377
250.046
251.715
253.384
255.053
256.722
258.391
260.06
261.729
263.397
265.066
266.734
268.402
270.07
271.737
273.404
275.069
276.734
278.398
280.06
281.72
283.379
285.034
286.687
288.336
289.981
291.623
293.262
294.904
296.545
298.178
299.8
301.409
303
304.57
306.114
307.624
309.092
310.504
311.844
313.093
314.227
315.227
316.075
316.763
317.296
317.683
317.946
318.109
318.2
318.245
318.266
318.274
318.278
318.28
318.282
318.281
318.277
318.275
318.274
318.273
318.272
318.271
318.271
318.271
318.27
318.27
318.271
318.271
318.271
318.271
318.272
318.272
318.272
318.273
318.273
318.273
318.273
318.274
318.274
318.274
318.274
318.275
318.275
318.275
318.275
318.276
318.276
318.276
318.276
318.276
318.276
318.276
318.277
318.277
318.277
318.277
318.277
318.277
318.277
318.278
318.278
318.278
318.278
318.278
318.278
318.278
318.278
318.278
318.278
318.279
318.279
318.279
318.279
318.279
318.279
318.279
318.279
318.279
318.279
318.279
318.279
318.279
318.28
318.28
318.28
318.28
318.28
318.28
318.28
318.28
318.28
318.28
318.28
318.28
318.28
318.28
318.28
318.28
318.28
318.28
318.28
318.28
318.28
318.28
318.28
318.28
318.28
318.28
318.28
318.28
318.28
318.28
318.28
318.28
318.28
318.28
318.28
318.28
318.28
318.28
318.28
318.28
318.28
318.28
318.28
318.28
318.28
318.28
318.28
318.28
318.28
318.28
318.28
318.28
318.28
318.28
318.28
318.28
318.28
318.28
318.28
318.28
318.28
318.28
318.28
318.28
318.28
318.28
318.28
318.28
318.28
318.28
318.28
318.279
318.279
318.279
318.279
318.279
318.279
318.279
318.279
318.279
318.279
318.279
318.28
318.28
318.281
318.282
318.283
318.285
318.288
318.291
318.295
318.3
318.305
318.31
318.314
318.318
318.32
318.32
318.318
318.314
318.31
318.304
318.299
318.296
318.293
318.292
318.291
318.291
318.291
318.291
318.291
318.291
318.291
318.291
318.291
318.29
318.29
318.291
318.29
318.29
318.29
318.29
318.29
318.29
318.29
318.29
318.29
318.29
318.29
318.29
318.289
318.289
318.289
318.289
318.289
318.289
318.289
318.289
318.289
318.289
318.289
318.289
318.289
318.288
318.288
318.288
318.288
318.288
318.288
318.288
318.288
318.288
318.288
318.288
318.287
318.287
318.287
318.287
318.287
318.287
318.287
318.287
318.287
318.286
318.286
318.286
318.286
318.286
318.286
318.286
318.286
318.286
318.285
318.285
318.285
318.285
318.285
318.285
318.285
318.284
318.284
318.284
318.284
318.284
318.284
318.284
318.284
318.283
318.283
318.283
318.283
318.283
318.283
318.282
318.282
318.282
318.282
318.282
318.282
318.281
318.281
318.281
318.281
318.281
318.28
318.28
318.28
318.28
318.28
318.279
318.279
318.279
318.279
318.278
318.278
318.278
318.278
318.277
318.277
318.277
318.277
318.276
318.276
318.276
318.276
318.275
318.275
318.275
318.274
318.274
318.273
318.274
318.272
318.273
318.269
318.273
318.265
318.274
318.259
318.276
318.247
318.276
318.216
318.254
318.121
318.139
317.819
317.642
316.902
315.454
313.544
306.433
299.526
272.209
236.477
140.489
38.7151
6.4992
1.05493
0.168458
0.0268452
0.00427742
0.000681525
0.000108587
1.73008e-05
2.75649e-06
4.39186e-07
6.99737e-08
1.11501e-08
1.7766e-09
2.83651e-10
4.52693e-11
7.62285e-12
1.3448e-12
5.0824e-13
2.03642e-13
2.41195e-13
1.48707e-13
3.95225e-14
2.73555e-13
1.64339e-13
1.87695e-13
2.02875e-13
7.82643e-14
5.34617e-14
1.39771e-13
2.02028e-13
1.14913e-13
7.77864e-15
1.77052e-13
1.18287e-13
2.40598e-14
3.74568e-13
1.7865e-13
5.5582e-14
1.16747e-13
1.17542e-13
1.87765e-13
3.82716e-13
4.92489e-13
6.17297e-13
6.81586e-13
7.80671e-13
8.363e-13
8.13512e-13
7.74304e-13
8.69203e-13
1.272e-12
1.21167e-12
8.53145e-13
7.48483e-13
4.3863e-13
3.91134e-13
4.37373e-13
3.43656e-13
5.58376e-14
7.7977e-14
7.93988e-14
3.19773e-13
5.23828e-13
6.09817e-13
7.57229e-13
5.85192e-13
1.27289e-13
2.97169e-13
3.90278e-13
2.74102e-13
4.69479e-13
7.73579e-13
7.03685e-13
7.8133e-13
7.88262e-13
5.64446e-13
7.89835e-13
8.28566e-13
6.95949e-13
7.90448e-13
1.00002e-12
9.52476e-13
6.34398e-13
1.02345e-12
1.17237e-12
1.18825e-12
1.07137e-12
8.68102e-13
9.85032e-13
1.02385e-12
1.06199e-12
8.60916e-13
7.50226e-13
4.5389e-13
5.63317e-13
9.22227e-13
1.03217e-12
1.02416e-12
9.3778e-13
9.91404e-13
6.89306e-13
7.97398e-13
8.7548e-13
8.05796e-13
9.61103e-13
8.91677e-13
7.97293e-13
9.37996e-13
1.05502e-12
9.53817e-13
1.03194e-12
1.09419e-12
9.07288e-13
8.29388e-13
9.14299e-13
9.44687e-13
5.16986e-13
4.68927e-13
4.06739e-13
5.4749e-13
8.4384e-13
7.58381e-13
8.60557e-13
9.5349e-13
1.0072e-12
7.90611e-13
6.79979e-13
6.72261e-13
6.57012e-13
6.57048e-13
8.05171e-13
1.05496e-12
1.32921e-12
1.43833e-12
1.36794e-12
1.29783e-12
1.3992e-12
1.37627e-12
1.49318e-12
1.7123e-12
1.6096e-12
1.41597e-12
1.22701e-12
1.11781e-12
1.15733e-12
1.34439e-12
1.33686e-12
)
;

boundaryField
{
    sides
    {
        type            calculated;
        value           nonuniform List<scalar> 2(1.33686e-12 7.30742e-15);
    }
    empty
    {
        type            empty;
    }
}


// ************************************************************************* //
