/*--------------------------------*- C++ -*----------------------------------*\
  =========                 |
  \\      /  F ield         | OpenFOAM: The Open Source CFD Toolbox
   \\    /   O peration     | Website:  https://openfoam.org
    \\  /    A nd           | Version:  13
     \\/     M anipulation  |
\*---------------------------------------------------------------------------*/
FoamFile
{
    format      ascii;
    class       volScalarField;
    location    "0.006";
    object      p;
}
// * * * * * * * * * * * * * * * * * * * * * * * * * * * * * * * * * * * * * //

dimensions      [1 -1 -2 0 0 0 0];

internalField   nonuniform List<scalar> 
1000
(
100000
100000
100000
100000
100000
100000
100000
100000
100000
100000
100000
100000
100000
100000
100000
100000
100000
100000
100000
100000
100000
100000
100000
100000
100000
100000
100000
100000
100000
100000
100000
100000
100000
100000
100000
100000
100000
100000
100000
100000
100000
100000
100000
100000
100000
100000
100000
100000
100000
100000
100000
100000
100000
100000
100000
100000
100000
100000
100000
100000
100000
100000
100000
100000
100000
100000
100000
100000
100000
100000
100000
100000
100000
100000
100000
100000
100000
100000
100000
100000
100000
100000
100000
100000
100000
100000
100000
100000
100000
100000
100000
100000
100000
100000
100000
100000
100000
100000
100000
100000
100000
100000
100000
100000
100000
100000
100000
100000
100000
100000
100000
100000
100000
100000
100000
100000
100000
100000
100000
100000
100000
100000
100000
100000
100000
100000
100000
100000
100000
100000
100000
100000
100000
100000
100000
100000
100000
100000
100000
100000
100000
100000
100000
100000
100000
100000
100000
100000
100000
100000
100000
100000
100000
100000
100000
100000
100000
100000
100000
100000
100000
100000
100000
100000
100000
100000
100000
100000
100000
100000
100000
100000
100000
100000
100000
100000
100000
100000
100000
100000
100000
100000
100000
100000
100000
100000
100000
100000
100000
100000
100000
100000
100000
100000
100000
100000
100000
100000
100000
100000
100000
100000
100000
100000
100000
100000
100000
100000
100000
100000
100000
100000
100000
100000
100000
100000
100000
100000
100000
100000
100000
100000
100000
100000
100000
100000
100000
100000
100000
100000
100000
100000
100000
100000
100000
100000
100000
100000
100000
100000
100000
100000
100000
100000
100000
100000
100000
99999.9
99999.9
99999.7
99999.6
99999.2
99998.7
99997.8
99996.2
99993.8
99989.9
99983.7
99974.4
99960.4
99940
99911
99871
99817.5
99748
99660.2
99552.2
99422.6
99270.6
99095.8
98898.3
98678.6
98437.6
98176.3
97896
97598.2
97284
96955.1
96612.7
96258.1
95892.7
95517.5
95133.6
94742.1
94343.8
93939.6
93530.2
93116.2
92698.3
92277.1
91852.9
91426.3
90997.7
90567.4
90135.7
89703
89269.4
88835.2
88400.7
87966
87531.3
87096.7
86662.4
86228.5
85795.2
85362.5
84930.5
84499.3
84069
83639.7
83211.5
82784.3
82358.2
81933.4
81509.8
81087.4
80666.4
80246.8
79828.5
79411.7
78996.3
78582.3
78169.9
77759
77349.6
76941.8
76535.5
76130.9
75727.8
75326.4
74926.6
74528.4
74131.9
73737.1
73344
72952.5
72562.8
72174.8
71788.5
71403.9
71021.1
70640.1
70260.9
69883.5
69507.9
69134.1
68762.2
68392.1
68024
67657.8
67293.6
66931.5
66571.3
66213.3
65857.4
65503.8
65152.6
64803.7
64457.4
64113.8
63773
63435.4
63101
62770.2
62443.4
62121
61803.7
61491.9
61186.7
60888.9
60599.8
60320.8
60053.5
59799.7
59561.5
59340.7
59139.3
58958.9
58800.6
58664.9
58551.5
58459.3
58386.4
58330.7
58289.4
58259.9
58239.6
58226.2
58217.9
58213
58210.2
58208.8
58208
58207.2
58206.2
58204.9
58203.1
58200.4
58196
58188.9
58177.3
58158.3
58128
58081.2
58012.2
57915.6
57788.4
57630
57443
57231.2
56999.2
56751.2
56490.7
56220.7
55943.6
55661.1
55374.7
55085.5
54794.3
54501.8
54208.5
53914.9
53621.2
53327.7
53034.8
52742.4
52450.8
52160.1
51870.4
51581.8
51294.3
51008
50722.9
50439.1
50156.6
49875.4
49595.5
49317
49039.9
48764.2
48489.9
48217
47945.5
47675.4
47406.7
47139.4
46873.5
46609.1
46346.1
46084.4
45824.2
45565.4
45308
45052
44797.4
44544.1
44292.3
44041.8
43792.7
43545
43298.6
43053.5
42809.9
42567.5
42326.5
42086.9
41848.5
41611.5
41375.8
41141.4
40908.3
40676.5
40446
40216.8
39988.8
39762.2
39536.8
39312.7
39089.8
38868.2
38647.9
38428.8
38211
37994.4
37779.1
37565.1
37352.3
37140.8
36930.6
36721.7
36514
36307.7
36102.7
35899.1
35696.9
35496.2
35296.9
35099.3
34903.1
34708.7
34515.3
34322.6
34131.3
33942
33754.9
33570.5
33389.1
33211
33036.9
32867.4
32703.5
32546.6
32398.3
32260.9
32136.5
32027.3
31934.9
31860.1
31802.4
31760.4
31732
31714.4
31704.6
31699.6
31697.4
31696.5
31696.1
31695.8
31695.7
31695.8
31696.2
31696.5
31696.6
31696.8
31696.9
31696.9
31697
31697
31697
31697
31697
31697
31696.9
31696.9
31696.8
31696.8
31696.7
31696.7
31696.6
31696.6
31696.6
31696.5
31696.5
31696.4
31696.4
31696.3
31696.3
31696.3
31696.2
31696.2
31696.2
31696.1
31696.1
31696.1
31696.1
31696
31696
31696
31696
31695.9
31695.9
31695.9
31695.8
31695.8
31695.8
31695.8
31695.8
31695.7
31695.7
31695.7
31695.7
31695.6
31695.6
31695.6
31695.6
31695.5
31695.5
31695.5
31695.5
31695.5
31695.4
31695.4
31695.4
31695.4
31695.4
31695.3
31695.3
31695.3
31695.3
31695.3
31695.3
31695.2
31695.2
31695.2
31695.2
31695.2
31695.2
31695.1
31695.1
31695.1
31695.1
31695.1
31695.1
31695
31695
31695
31695
31695
31695
31694.9
31694.9
31694.9
31694.9
31694.9
31694.9
31694.8
31694.8
31694.8
31694.8
31694.8
31694.8
31694.8
31694.7
31694.7
31694.7
31694.7
31694.7
31694.7
31694.7
31694.6
31694.6
31694.6
31694.6
31694.6
31694.6
31694.5
31694.5
31694.5
31694.5
31694.5
31694.5
31694.5
31694.4
31694.4
31694.4
31694.4
31694.4
31694.4
31694.4
31694.3
31694.3
31694.3
31694.3
31694.3
31694.3
31694.3
31694.2
31694.2
31694.2
31694.2
31694.2
31694.2
31694.1
31694.1
31694.1
31694.1
31694.1
31694.1
31694.1
31694.2
31694.2
31694.3
31694.5
31694.7
31695
31695.4
31695.9
31696.4
31697
31697.5
31698
31698.4
31698.5
31698.4
31698
31697.4
31696.7
31695.9
31695.2
31694.6
31694.3
31694
31693.9
31693.9
31693.8
31693.8
31693.8
31693.8
31693.8
31693.8
31693.8
31693.8
31693.8
31693.8
31693.7
31693.7
31693.7
31693.7
31693.7
31693.7
31693.7
31693.7
31693.7
31693.7
31693.7
31693.7
31693.6
31693.6
31693.6
31693.6
31693.6
31693.6
31693.6
31693.6
31693.6
31693.6
31693.5
31693.5
31693.5
31693.5
31693.5
31693.5
31693.5
31693.5
31693.5
31693.5
31693.4
31693.4
31693.4
31693.4
31693.4
31693.4
31693.4
31693.4
31693.3
31693.3
31693.3
31693.3
31693.3
31693.3
31693.3
31693.3
31693.2
31693.2
31693.2
31693.2
31693.2
31693.2
31693.2
31693.2
31693.1
31693.1
31693.1
31693.1
31693.1
31693.1
31693
31693
31693
31693
31693
31693
31692.9
31692.9
31692.9
31692.9
31692.9
31692.9
31692.8
31692.8
31692.8
31692.8
31692.8
31692.8
31692.7
31692.7
31692.7
31692.7
31692.6
31692.6
31692.6
31692.6
31692.6
31692.5
31692.5
31692.5
31692.5
31692.4
31692.4
31692.4
31692.4
31692.3
31692.3
31692.3
31692.3
31692.2
31692.2
31692.2
31692.1
31692.1
31692.1
31692
31692
31692
31692
31691.9
31691.9
31691.8
31691.9
31691.6
31691.8
31691.2
31691.8
31690.7
31692.1
31689.6
31692.7
31687
31693.4
31679.5
31692
31657.2
31678.5
31588
31598.8
31346
31249.5
30412.2
29812.1
27106.9
24014.2
16985.3
11666.1
10292.6
10071.1
10035.3
10029.6
10028.7
10028.5
10028.5
10028.5
10028.5
10028.5
10028.5
10028.5
10028.5
10028.5
10028.5
10028.5
10028.5
10028.5
10028.5
10028.5
10028.5
10028.5
10028.5
10028.5
10028.5
10028.5
10028.5
10028.5
10028.5
10028.5
10028.5
10028.5
10028.5
10028.5
10028.5
10028.5
10028.5
10028.5
10028.5
10028.5
10028.5
10028.5
10028.5
10028.5
10028.5
10028.5
10028.5
10028.5
10028.5
10028.5
10028.5
10028.5
10028.5
10028.5
10028.5
10028.5
10028.5
10028.5
10028.5
10028.5
10028.5
10028.5
10028.5
10028.5
10028.5
10028.5
10028.5
10028.5
10028.5
10028.5
10028.5
10028.5
10028.5
10028.5
10028.5
10028.5
10028.5
10028.5
10028.5
10028.5
10028.5
10028.5
10028.5
10028.5
10028.5
10028.5
10028.5
10028.5
10028.5
10028.5
10028.5
10028.5
10028.5
10028.5
10028.5
10028.5
10028.5
10028.5
10028.5
10028.5
10028.5
10028.5
10028.5
10028.5
10028.5
10028.5
10028.5
10028.5
10028.5
10028.5
10028.5
10028.5
10028.5
10028.5
10028.5
10028.5
10028.5
10028.5
10028.5
10028.5
10028.5
10028.5
10028.5
10028.5
10028.5
10028.5
10028.5
10028.5
10028.5
10028.5
10028.5
10028.5
10028.5
10028.5
10028.5
10028.5
10028.5
10028.5
10028.5
10028.5
10028.5
10028.5
10028.5
10028.5
10028.5
10028.5
10028.5
)
;

boundaryField
{
    sides
    {
        type            zeroGradient;
    }
    empty
    {
        type            empty;
    }
}


// ************************************************************************* //
