/*--------------------------------*- C++ -*----------------------------------*\
  =========                 |
  \\      /  F ield         | OpenFOAM: The Open Source CFD Toolbox
   \\    /   O peration     | Website:  https://openfoam.org
    \\  /    A nd           | Version:  13
     \\/     M anipulation  |
\*---------------------------------------------------------------------------*/
FoamFile
{
    format      ascii;
    class       surfaceScalarField;
    location    "0.006";
    object      phi;
}
// * * * * * * * * * * * * * * * * * * * * * * * * * * * * * * * * * * * * * //

dimensions      [1 0 -1 0 0 0 0];

internalField   nonuniform List<scalar> 
999
(
1.13687e-13
5.68434e-13
6.82121e-13
6.82121e-13
5.68434e-13
1.13687e-13
0
4.54747e-13
3.41061e-13
3.41061e-13
4.54747e-13
3.41061e-13
0
0
2.27374e-13
5.68434e-13
5.68434e-13
1.13687e-13
1.13687e-13
4.54747e-13
1.13687e-13
-1.25056e-12
-2.16005e-12
-2.27374e-12
-1.59162e-12
-1.36424e-12
-7.95808e-13
1.13687e-13
-5.68434e-13
-1.13687e-13
-1.13687e-12
-1.47793e-12
-1.25056e-12
-1.02318e-12
-1.13687e-13
-1.02318e-12
-1.25056e-12
-1.7053e-12
-1.7053e-12
-1.13687e-12
-1.02318e-12
-1.02318e-12
-5.68434e-13
-5.68434e-13
-4.54747e-13
-2.27374e-13
-5.68434e-13
-3.41061e-13
-4.54747e-13
-6.82121e-13
2.27374e-13
1.36424e-12
1.36424e-12
4.54747e-13
4.54747e-13
-6.82121e-13
-1.59162e-12
-1.02318e-12
2.27374e-13
7.95808e-13
0
1.13687e-13
-9.09495e-13
-4.54747e-13
-5.68434e-13
-4.54747e-13
0
4.54747e-13
7.95808e-13
6.82121e-13
3.41061e-13
-1.13687e-13
-4.54747e-13
-2.27374e-13
-5.68434e-13
-2.27374e-13
1.13687e-13
6.82121e-13
3.41061e-13
1.13687e-12
1.13687e-13
-5.68434e-13
-2.27374e-13
5.68434e-13
9.09495e-13
5.68434e-13
2.27374e-13
-4.54747e-13
-3.41061e-13
-4.54747e-13
-2.27374e-13
3.41061e-13
1.36424e-12
1.47793e-12
1.02318e-12
1.7053e-12
1.13687e-12
7.95808e-13
1.25056e-12
1.7053e-12
2.16005e-12
1.36424e-12
1.81899e-12
1.47793e-12
6.82121e-13
2.27374e-13
6.82121e-13
9.09495e-13
2.16005e-12
1.93268e-12
2.27374e-12
1.7053e-12
7.95808e-13
3.41061e-13
1.02318e-12
1.02318e-12
1.02318e-12
9.09495e-13
1.02318e-12
7.95808e-13
4.54747e-13
1.13687e-13
1.13687e-13
1.13687e-13
1.13687e-13
0
-2.27374e-13
1.13687e-13
2.27374e-13
2.27374e-13
0
-4.54747e-13
-6.82121e-13
-2.27374e-13
-1.13687e-13
2.27374e-13
2.27374e-13
0
1.13687e-13
4.54747e-13
4.54747e-13
4.54747e-13
4.54747e-13
4.54747e-13
4.54747e-13
5.68434e-13
5.68434e-13
5.68434e-13
5.68434e-13
5.68434e-13
4.54747e-13
3.41061e-13
4.54747e-13
4.54747e-13
4.54747e-13
3.41061e-13
3.41061e-13
-1.13687e-13
-1.13687e-13
-2.27374e-13
0
0
0
1.13687e-13
4.54747e-13
4.54747e-13
4.54747e-13
4.54747e-13
4.54747e-13
4.54747e-13
5.68434e-13
5.68434e-13
5.68434e-13
5.68434e-13
5.68434e-13
4.54747e-13
3.41061e-13
4.54747e-13
4.54747e-13
1.13687e-13
0
2.27374e-13
1.13687e-13
-3.41061e-13
-3.41061e-13
0
0
0
0
-1.13687e-13
-1.13687e-13
0
-5.68434e-13
-3.41061e-13
-5.68434e-13
-1.25056e-12
-1.36424e-12
-1.25056e-12
-1.13687e-12
-5.68434e-13
-2.27374e-13
-2.27374e-13
-3.41061e-13
-2.27374e-13
-6.82121e-13
-5.68434e-13
-6.82121e-13
-9.09495e-13
-1.13687e-12
-1.25056e-12
-1.25056e-12
-1.36424e-12
-1.59162e-12
-1.36424e-12
-1.25056e-12
-1.59162e-12
-1.13687e-12
-6.82121e-13
1.25056e-12
3.52429e-12
8.86757e-12
1.94404e-11
4.35421e-11
9.3678e-11
1.9952e-10
4.2121e-10
8.85507e-10
1.85003e-09
3.84284e-09
7.93511e-09
1.6284e-08
3.32096e-08
6.72956e-08
1.35473e-07
2.70905e-07
5.38038e-07
1.06114e-06
2.07791e-06
4.03928e-06
7.79337e-06
1.49214e-05
2.83444e-05
5.34081e-05
9.97992e-05
0.000184891
0.000339515
0.000617766
0.00111345
0.00198721
0.0035105
0.00613559
0.0106044
0.018114
0.0305603
0.0508846
0.0835434
0.135108
0.214958
0.33598
0.515087
0.773319
1.13529
1.62793
2.27859
3.11303
4.15348
5.41733
6.91631
8.65637
10.638
12.8568
15.3045
17.9696
20.8386
23.8964
27.1274
30.5155
34.0453
37.7015
41.4699
45.337
49.2904
53.3186
57.4112
61.5585
65.7521
69.9841
74.2474
78.5358
82.8436
87.1657
91.4975
95.8351
100.175
104.513
108.847
113.174
117.492
121.799
126.092
130.371
134.633
138.877
143.102
147.307
151.491
155.652
159.79
163.905
167.995
172.061
176.101
180.114
184.102
188.062
191.996
195.902
199.78
203.63
207.452
211.245
215.01
218.746
222.453
226.131
229.779
233.399
236.989
240.55
244.081
247.583
251.055
254.498
257.911
261.295
264.649
267.973
271.267
274.532
277.767
280.972
284.147
287.292
290.408
293.494
296.549
299.575
302.571
305.536
308.471
311.375
314.248
317.09
319.901
322.681
325.428
328.142
330.823
333.47
336.082
338.658
341.195
343.694
346.151
348.563
350.928
353.242
355.499
357.694
359.82
361.868
363.828
365.689
367.438
369.063
370.551
371.892
373.076
374.099
374.963
375.672
376.238
376.677
377.006
377.245
377.411
377.522
377.593
377.635
377.659
377.67
377.677
377.682
377.688
377.696
377.707
377.722
377.747
377.786
377.85
377.956
378.126
378.394
378.798
379.378
380.166
381.171
382.383
383.774
385.311
386.96
388.69
390.478
392.302
394.149
396.007
397.866
399.719
401.562
403.39
405.199
406.988
408.755
410.497
412.214
413.905
415.569
417.206
418.815
420.396
421.949
423.474
424.97
426.437
427.877
429.288
430.67
432.025
433.352
434.651
435.922
437.166
438.382
439.572
440.734
441.87
442.98
444.063
445.12
446.152
447.158
448.138
449.093
450.024
450.93
451.811
452.668
453.501
454.311
455.097
455.859
456.599
457.315
458.009
458.681
459.33
459.958
460.563
461.147
461.71
462.252
462.772
463.273
463.752
464.211
464.65
465.07
465.469
465.849
466.21
466.552
466.875
467.179
467.465
467.733
467.982
468.214
468.427
468.624
468.803
468.964
469.109
469.238
469.349
469.445
469.524
469.588
469.636
469.669
469.686
469.689
469.677
469.651
469.611
469.557
469.491
469.413
469.323
469.223
469.114
468.999
468.879
468.758
468.64
468.528
468.427
468.339
468.268
468.214
468.175
468.149
468.134
468.125
468.121
468.119
468.118
468.117
468.117
468.117
468.116
468.116
468.115
468.115
468.115
468.115
468.114
468.114
468.114
468.114
468.113
468.113
468.113
468.113
468.113
468.113
468.112
468.112
468.112
468.112
468.112
468.112
468.111
468.111
468.111
468.111
468.111
468.111
468.11
468.11
468.11
468.11
468.11
468.109
468.109
468.109
468.109
468.109
468.108
468.108
468.108
468.108
468.107
468.107
468.107
468.107
468.107
468.106
468.106
468.106
468.106
468.106
468.105
468.105
468.105
468.105
468.104
468.104
468.104
468.104
468.104
468.103
468.103
468.103
468.103
468.103
468.102
468.102
468.102
468.102
468.101
468.101
468.101
468.1
468.1
468.1
468.099
468.099
468.098
468.098
468.097
468.097
468.096
468.096
468.095
468.095
468.094
468.094
468.093
468.092
468.092
468.091
468.091
468.09
468.089
468.089
468.088
468.087
468.087
468.086
468.085
468.085
468.084
468.083
468.082
468.082
468.081
468.08
468.079
468.078
468.078
468.077
468.076
468.075
468.074
468.073
468.073
468.072
468.071
468.07
468.069
468.068
468.067
468.066
468.065
468.063
468.062
468.061
468.059
468.058
468.055
468.052
468.048
468.043
468.034
468.022
468.004
467.979
467.941
467.885
467.805
467.691
467.529
467.301
466.985
466.551
465.963
465.177
464.138
462.784
461.046
458.846
456.104
452.74
448.681
443.867
438.26
431.85
424.663
416.767
408.274
399.339
390.155
380.946
371.951
363.412
355.555
348.569
342.59
337.682
333.826
330.93
328.846
327.403
326.437
325.809
325.412
325.167
325.02
324.934
324.886
324.86
324.847
324.841
324.839
324.838
324.838
324.839
324.84
324.841
324.843
324.845
324.847
324.847
324.847
324.847
324.847
324.847
324.847
324.846
324.845
324.845
324.844
324.843
324.842
324.842
324.841
324.84
324.839
324.839
324.838
324.837
324.837
324.836
324.836
324.835
324.835
324.834
324.834
324.833
324.833
324.832
324.832
324.831
324.831
324.83
324.83
324.83
324.829
324.829
324.828
324.828
324.828
324.827
324.827
324.826
324.826
324.826
324.825
324.825
324.825
324.824
324.824
324.823
324.823
324.823
324.822
324.822
324.822
324.821
324.821
324.82
324.82
324.82
324.819
324.819
324.818
324.818
324.818
324.817
324.817
324.816
324.816
324.816
324.815
324.815
324.814
324.814
324.814
324.813
324.813
324.812
324.812
324.811
324.811
324.81
324.81
324.809
324.809
324.809
324.808
324.808
324.807
324.807
324.806
324.805
324.805
324.804
324.804
324.803
324.803
324.802
324.802
324.801
324.8
324.8
324.799
324.798
324.797
324.797
324.795
324.794
324.791
324.792
324.786
324.789
324.778
324.784
324.753
324.754
324.663
324.628
324.35
324.12
323.241
322.057
318.718
313.813
301.013
280.784
237.99
155.77
48.3446
8.356
1.38602
0.222705
0.035559
0.00566936
0.000903497
0.000143964
2.29381e-05
3.6547e-06
5.82294e-07
9.27755e-08
1.4782e-08
2.35541e-09
3.75479e-10
5.99414e-11
9.70601e-12
1.64846e-12
3.55271e-13
1.42109e-13
7.10543e-14
9.9476e-14
4.26326e-14
8.52651e-14
9.9476e-14
7.10543e-14
1.13687e-13
5.68434e-14
2.84217e-14
1.42109e-14
4.26326e-14
0
0
1.42109e-14
8.52651e-14
0
-7.10543e-14
-1.27898e-13
-4.26326e-14
-5.68434e-14
-1.42109e-14
-7.10543e-14
-1.13687e-13
-2.13163e-13
-2.41585e-13
-3.12639e-13
-3.12639e-13
-3.97904e-13
-4.12115e-13
-3.69482e-13
-3.55271e-13
-4.9738e-13
-5.54223e-13
-4.9738e-13
-3.69482e-13
-2.27374e-13
-1.84741e-13
-1.98952e-13
-1.98952e-13
-1.42109e-13
-1.42109e-14
2.84217e-14
9.9476e-14
1.84741e-13
2.55795e-13
3.12639e-13
3.41061e-13
1.98952e-13
9.9476e-14
1.56319e-13
1.42109e-13
1.98952e-13
3.2685e-13
3.41061e-13
3.2685e-13
3.69482e-13
3.41061e-13
3.2685e-13
3.83693e-13
3.55271e-13
3.97904e-13
4.12115e-13
3.97904e-13
3.41061e-13
3.83693e-13
5.40012e-13
5.25802e-13
5.82645e-13
4.54747e-13
4.26326e-13
4.54747e-13
4.68958e-13
4.83169e-13
3.83693e-13
3.41061e-13
2.41585e-13
3.41061e-13
4.26326e-13
4.68958e-13
4.68958e-13
4.40536e-13
3.83693e-13
3.41061e-13
3.97904e-13
3.97904e-13
4.12115e-13
4.12115e-13
4.26326e-13
3.83693e-13
4.54747e-13
4.83169e-13
4.54747e-13
5.11591e-13
4.40536e-13
4.40536e-13
3.97904e-13
4.12115e-13
3.55271e-13
2.13163e-13
2.27374e-13
1.98952e-13
3.12639e-13
3.69482e-13
3.69482e-13
4.26326e-13
4.68958e-13
4.26326e-13
3.2685e-13
3.55271e-13
3.12639e-13
3.2685e-13
3.2685e-13
4.26326e-13
5.68434e-13
6.6791e-13
6.6791e-13
6.11067e-13
6.39488e-13
6.39488e-13
6.82121e-13
7.38964e-13
7.67386e-13
7.38964e-13
6.25278e-13
5.25802e-13
5.11591e-13
5.96856e-13
6.25278e-13
)
;

boundaryField
{
    sides
    {
        type            calculated;
        value           nonuniform List<scalar> 2(6.25278e-13 0);
    }
    empty
    {
        type            empty;
    }
}


// ************************************************************************* //
