/*--------------------------------*- C++ -*----------------------------------*\
  =========                 |
  \\      /  F ield         | OpenFOAM: The Open Source CFD Toolbox
   \\    /   O peration     | Website:  https://openfoam.org
    \\  /    A nd           | Version:  13
     \\/     M anipulation  |
\*---------------------------------------------------------------------------*/
FoamFile
{
    format      ascii;
    class       volScalarField;
    location    "0.006";
    object      rho;
}
// * * * * * * * * * * * * * * * * * * * * * * * * * * * * * * * * * * * * * //

dimensions      [1 -3 0 0 0 0 0];

internalField   nonuniform List<scalar> 
1000
(
0.995488
0.995488
0.995488
0.995488
0.995488
0.995488
0.995488
0.995488
0.995488
0.995488
0.995488
0.995488
0.995488
0.995488
0.995488
0.995488
0.995488
0.995488
0.995488
0.995488
0.995488
0.995488
0.995488
0.995488
0.995488
0.995488
0.995488
0.995488
0.995488
0.995488
0.995488
0.995488
0.995488
0.995488
0.995488
0.995488
0.995488
0.995488
0.995488
0.995488
0.995488
0.995488
0.995488
0.995488
0.995488
0.995488
0.995488
0.995488
0.995488
0.995488
0.995488
0.995488
0.995488
0.995488
0.995488
0.995488
0.995488
0.995488
0.995488
0.995488
0.995488
0.995488
0.995488
0.995488
0.995488
0.995488
0.995488
0.995488
0.995488
0.995488
0.995488
0.995488
0.995488
0.995488
0.995488
0.995488
0.995488
0.995488
0.995488
0.995488
0.995488
0.995488
0.995488
0.995488
0.995488
0.995488
0.995488
0.995488
0.995488
0.995488
0.995488
0.995488
0.995488
0.995488
0.995488
0.995488
0.995488
0.995488
0.995488
0.995488
0.995488
0.995488
0.995488
0.995488
0.995488
0.995488
0.995488
0.995488
0.995488
0.995488
0.995488
0.995488
0.995488
0.995488
0.995488
0.995488
0.995488
0.995488
0.995488
0.995488
0.995488
0.995488
0.995488
0.995488
0.995488
0.995488
0.995488
0.995488
0.995488
0.995488
0.995488
0.995488
0.995488
0.995488
0.995488
0.995488
0.995488
0.995488
0.995488
0.995488
0.995488
0.995488
0.995488
0.995488
0.995488
0.995488
0.995488
0.995488
0.995488
0.995488
0.995488
0.995488
0.995488
0.995488
0.995488
0.995488
0.995488
0.995488
0.995488
0.995488
0.995488
0.995488
0.995488
0.995488
0.995488
0.995488
0.995488
0.995488
0.995488
0.995488
0.995488
0.995488
0.995488
0.995488
0.995488
0.995488
0.995488
0.995488
0.995488
0.995488
0.995488
0.995488
0.995488
0.995488
0.995488
0.995488
0.995488
0.995488
0.995488
0.995488
0.995488
0.995488
0.995488
0.995488
0.995488
0.995488
0.995488
0.995488
0.995488
0.995488
0.995488
0.995488
0.995488
0.995488
0.995488
0.995488
0.995488
0.995488
0.995488
0.995488
0.995488
0.995488
0.995488
0.995488
0.995488
0.995488
0.995488
0.995488
0.995488
0.995488
0.995488
0.995488
0.995488
0.995488
0.995488
0.995488
0.995488
0.995488
0.995488
0.995488
0.995488
0.995488
0.995488
0.995488
0.995488
0.995488
0.995488
0.995488
0.995488
0.995488
0.995488
0.995488
0.995488
0.995488
0.995488
0.995487
0.995487
0.995487
0.995487
0.995486
0.995484
0.995482
0.995478
0.995472
0.995461
0.995443
0.995415
0.995371
0.995304
0.995204
0.995058
0.994851
0.994565
0.994182
0.993684
0.993056
0.992282
0.991354
0.990264
0.989011
0.987594
0.986017
0.984286
0.982408
0.980392
0.978247
0.975983
0.973611
0.971139
0.968577
0.965933
0.963216
0.960434
0.957592
0.954698
0.951758
0.948776
0.945758
0.942707
0.939627
0.936523
0.933397
0.930252
0.92709
0.923915
0.920727
0.917529
0.914322
0.911108
0.907889
0.904665
0.901438
0.898208
0.894978
0.891746
0.888515
0.885285
0.882056
0.87883
0.875606
0.872386
0.869169
0.865957
0.862748
0.859545
0.856347
0.853154
0.849967
0.846786
0.843611
0.840442
0.837281
0.834126
0.830978
0.827837
0.824704
0.821578
0.81846
0.81535
0.812248
0.809154
0.806068
0.802991
0.799922
0.796861
0.793809
0.790766
0.787732
0.784708
0.781692
0.778685
0.775689
0.772701
0.769724
0.766756
0.763799
0.760852
0.757915
0.75499
0.752075
0.749172
0.74628
0.743401
0.740534
0.73768
0.734841
0.732015
0.729205
0.726412
0.723636
0.720879
0.718143
0.715429
0.712742
0.710082
0.707455
0.704865
0.702317
0.699819
0.697378
0.695006
0.692713
0.690514
0.688424
0.686459
0.684636
0.682972
0.68148
0.68017
0.679046
0.678106
0.677341
0.676736
0.676273
0.675931
0.675685
0.675517
0.675406
0.675336
0.675295
0.675272
0.67526
0.675251
0.675242
0.675231
0.675216
0.675195
0.675163
0.675112
0.67503
0.674895
0.674674
0.674323
0.67378
0.672979
0.671859
0.670383
0.668546
0.666377
0.66392
0.661229
0.658351
0.655329
0.652197
0.648983
0.645706
0.642384
0.639028
0.63565
0.632257
0.628855
0.625448
0.622041
0.618637
0.615238
0.611847
0.608464
0.605092
0.601731
0.598383
0.595048
0.591726
0.588419
0.585127
0.581849
0.578587
0.575341
0.57211
0.568896
0.565697
0.562515
0.559349
0.556199
0.553066
0.549949
0.546848
0.543764
0.540696
0.537645
0.53461
0.531591
0.528589
0.525603
0.522633
0.519679
0.516741
0.51382
0.510914
0.508024
0.50515
0.502292
0.49945
0.496623
0.493812
0.491016
0.488236
0.485471
0.482721
0.479987
0.477267
0.474563
0.471874
0.4692
0.466541
0.463897
0.461267
0.458653
0.456053
0.453467
0.450897
0.448341
0.445799
0.443273
0.44076
0.438263
0.43578
0.433311
0.430858
0.428419
0.425995
0.423587
0.421193
0.418816
0.416454
0.414108
0.411779
0.409468
0.407175
0.404899
0.402644
0.4004
0.398165
0.395946
0.393749
0.39158
0.389441
0.387336
0.38527
0.38325
0.381283
0.379382
0.377562
0.375842
0.374247
0.372804
0.371537
0.370466
0.369598
0.368929
0.368442
0.368112
0.367908
0.367794
0.367737
0.367711
0.3677
0.367695
0.367692
0.367691
0.367692
0.367695
0.367697
0.367699
0.3677
0.3677
0.367701
0.367701
0.367701
0.367701
0.367701
0.367701
0.3677
0.3677
0.3677
0.367699
0.367699
0.367698
0.367698
0.367697
0.367697
0.367696
0.367696
0.367695
0.367695
0.367694
0.367694
0.367694
0.367693
0.367693
0.367692
0.367692
0.367692
0.367691
0.367691
0.367691
0.36769
0.36769
0.36769
0.367689
0.367689
0.367689
0.367688
0.367688
0.367688
0.367688
0.367687
0.367687
0.367687
0.367686
0.367686
0.367686
0.367686
0.367685
0.367685
0.367685
0.367684
0.367684
0.367684
0.367684
0.367683
0.367683
0.367683
0.367683
0.367682
0.367682
0.367682
0.367682
0.367681
0.367681
0.367681
0.367681
0.36768
0.36768
0.36768
0.367679
0.367679
0.367679
0.367678
0.367678
0.367677
0.367677
0.367677
0.367676
0.367676
0.367675
0.367675
0.367674
0.367674
0.367673
0.367673
0.367672
0.367672
0.367671
0.367671
0.36767
0.36767
0.367669
0.367669
0.367668
0.367668
0.367667
0.367667
0.367666
0.367666
0.367665
0.367664
0.367664
0.367663
0.367663
0.367662
0.367661
0.367661
0.36766
0.367659
0.367659
0.367658
0.367657
0.367657
0.367656
0.367655
0.367654
0.367654
0.367653
0.367652
0.367651
0.36765
0.367649
0.367648
0.367647
0.367645
0.367643
0.367641
0.367637
0.367631
0.367623
0.367611
0.367594
0.367569
0.367532
0.367478
0.367401
0.367292
0.367138
0.366923
0.366627
0.366224
0.365681
0.364961
0.364019
0.3628
0.361249
0.359303
0.3569
0.353979
0.350489
0.346392
0.341667
0.336323
0.330397
0.323958
0.317113
0.309998
0.302776
0.295629
0.288746
0.28231
0.276483
0.271393
0.267118
0.263678
0.26103
0.259079
0.257699
0.256759
0.256138
0.255739
0.25549
0.255339
0.255249
0.255197
0.255169
0.255154
0.255147
0.255144
0.255143
0.255143
0.255143
0.255144
0.255145
0.255147
0.255148
0.25515
0.25515
0.255151
0.255151
0.255151
0.255151
0.25515
0.25515
0.25515
0.255149
0.255149
0.255148
0.255148
0.255147
0.255147
0.255146
0.255146
0.255145
0.255145
0.255144
0.255144
0.255143
0.255143
0.255143
0.255142
0.255142
0.255142
0.255141
0.255141
0.255141
0.25514
0.25514
0.25514
0.25514
0.255139
0.255139
0.255139
0.255139
0.255139
0.255138
0.255138
0.255138
0.255138
0.255137
0.255137
0.255137
0.255137
0.255137
0.255136
0.255136
0.255136
0.255136
0.255136
0.255136
0.255135
0.255135
0.255135
0.255135
0.255135
0.255134
0.255134
0.255134
0.255134
0.255134
0.255134
0.255133
0.255133
0.255133
0.255133
0.255133
0.255132
0.255132
0.255132
0.255132
0.255132
0.255131
0.255131
0.255131
0.255131
0.255131
0.255131
0.25513
0.25513
0.25513
0.25513
0.25513
0.255129
0.255129
0.255129
0.255129
0.255129
0.255128
0.255128
0.255128
0.255128
0.255128
0.255127
0.255127
0.255127
0.255127
0.255127
0.255126
0.255126
0.255126
0.255125
0.255126
0.255125
0.255125
0.255123
0.255125
0.255121
0.255125
0.255118
0.255126
0.255112
0.25513
0.255097
0.255134
0.255053
0.255126
0.254922
0.255048
0.254518
0.25459
0.253108
0.252572
0.247616
0.244268
0.227987
0.209842
0.165319
0.128836
0.118478
0.116689
0.116394
0.116346
0.116339
0.116338
0.116337
0.116337
0.116337
0.116337
0.116337
0.116337
0.116337
0.116337
0.116337
0.116337
0.116337
0.116337
0.116337
0.116337
0.116337
0.116337
0.116337
0.116337
0.116337
0.116337
0.116337
0.116337
0.116337
0.116337
0.116337
0.116337
0.116337
0.116337
0.116337
0.116337
0.116337
0.116337
0.116337
0.116337
0.116337
0.116337
0.116337
0.116337
0.116337
0.116337
0.116337
0.116337
0.116337
0.116337
0.116337
0.116337
0.116337
0.116337
0.116337
0.116337
0.116337
0.116337
0.116337
0.116337
0.116337
0.116337
0.116337
0.116337
0.116337
0.116337
0.116337
0.116337
0.116337
0.116337
0.116337
0.116337
0.116337
0.116337
0.116337
0.116337
0.116337
0.116337
0.116337
0.116337
0.116337
0.116337
0.116337
0.116337
0.116337
0.116337
0.116337
0.116337
0.116337
0.116337
0.116337
0.116337
0.116337
0.116337
0.116337
0.116337
0.116337
0.116337
0.116337
0.116337
0.116337
0.116337
0.116337
0.116337
0.116337
0.116337
0.116337
0.116337
0.116337
0.116337
0.116337
0.116337
0.116337
0.116337
0.116337
0.116337
0.116337
0.116337
0.116337
0.116337
0.116337
0.116337
0.116337
0.116337
0.116337
0.116337
0.116337
0.116337
0.116337
0.116337
0.116337
0.116337
0.116337
0.116337
0.116337
0.116337
0.116337
0.116337
0.116337
0.116337
0.116337
0.116337
0.116337
0.116337
0.116337
0.116337
0.116337
)
;

boundaryField
{
    sides
    {
        type            calculated;
        value           nonuniform List<scalar> 2(0.116337 0.995488);
    }
    empty
    {
        type            empty;
    }
}


// ************************************************************************* //
