/*--------------------------------*- C++ -*----------------------------------*\
  =========                 |
  \\      /  F ield         | OpenFOAM: The Open Source CFD Toolbox
   \\    /   O peration     | Website:  https://openfoam.org
    \\  /    A nd           | Version:  13
     \\/     M anipulation  |
\*---------------------------------------------------------------------------*/
FoamFile
{
    format      ascii;
    class       volScalarField;
    location    "0.006";
    object      T;
}
// * * * * * * * * * * * * * * * * * * * * * * * * * * * * * * * * * * * * * //

dimensions      [0 0 0 1 0 0 0];

internalField   nonuniform List<scalar> 
1000
(
348.432
348.432
348.432
348.432
348.432
348.432
348.432
348.432
348.432
348.432
348.432
348.432
348.432
348.432
348.432
348.432
348.432
348.432
348.432
348.432
348.432
348.432
348.432
348.432
348.432
348.432
348.432
348.432
348.432
348.432
348.432
348.432
348.432
348.432
348.432
348.432
348.432
348.432
348.432
348.432
348.432
348.432
348.432
348.432
348.432
348.432
348.432
348.432
348.432
348.432
348.432
348.432
348.432
348.432
348.432
348.432
348.432
348.432
348.432
348.432
348.432
348.432
348.432
348.432
348.432
348.432
348.432
348.432
348.432
348.432
348.432
348.432
348.432
348.432
348.432
348.432
348.432
348.432
348.432
348.432
348.432
348.432
348.432
348.432
348.432
348.432
348.432
348.432
348.432
348.432
348.432
348.432
348.432
348.432
348.432
348.432
348.432
348.432
348.432
348.432
348.432
348.432
348.432
348.432
348.432
348.432
348.432
348.432
348.432
348.432
348.432
348.432
348.432
348.432
348.432
348.432
348.432
348.432
348.432
348.432
348.432
348.432
348.432
348.432
348.432
348.432
348.432
348.432
348.432
348.432
348.432
348.432
348.432
348.432
348.432
348.432
348.432
348.432
348.432
348.432
348.432
348.432
348.432
348.432
348.432
348.432
348.432
348.432
348.432
348.432
348.432
348.432
348.432
348.432
348.432
348.432
348.432
348.432
348.432
348.432
348.432
348.432
348.432
348.432
348.432
348.432
348.432
348.432
348.432
348.432
348.432
348.432
348.432
348.432
348.432
348.432
348.432
348.432
348.432
348.432
348.432
348.432
348.432
348.432
348.432
348.432
348.432
348.432
348.432
348.432
348.432
348.432
348.432
348.432
348.432
348.432
348.432
348.432
348.432
348.432
348.432
348.432
348.432
348.432
348.432
348.432
348.432
348.432
348.432
348.432
348.432
348.432
348.432
348.432
348.432
348.432
348.432
348.432
348.432
348.432
348.432
348.432
348.432
348.432
348.432
348.432
348.432
348.432
348.432
348.432
348.432
348.432
348.432
348.432
348.432
348.432
348.432
348.432
348.432
348.432
348.432
348.432
348.432
348.432
348.432
348.432
348.432
348.432
348.432
348.432
348.432
348.431
348.431
348.43
348.428
348.426
348.422
348.416
348.407
348.393
348.373
348.345
348.306
348.253
348.185
348.098
347.992
347.865
347.715
347.543
347.348
347.13
346.891
346.632
346.353
346.057
345.743
345.413
345.07
344.713
344.344
343.964
343.574
343.176
342.769
342.355
341.934
341.507
341.074
340.637
340.195
339.749
339.3
338.847
338.391
337.932
337.471
337.008
336.542
336.075
335.606
335.135
334.663
334.189
333.715
333.239
332.763
332.285
331.807
331.328
330.848
330.368
329.887
329.405
328.923
328.441
327.959
327.476
326.993
326.51
326.026
325.543
325.059
324.575
324.091
323.607
323.123
322.639
322.155
321.671
321.187
320.704
320.22
319.737
319.253
318.77
318.287
317.805
317.322
316.84
316.358
315.877
315.396
314.915
314.435
313.955
313.475
312.997
312.518
312.041
311.564
311.087
310.612
310.137
309.664
309.191
308.72
308.251
307.782
307.316
306.852
306.39
305.931
305.475
305.023
304.575
304.132
303.696
303.267
302.847
302.438
302.042
301.661
301.299
300.957
300.64
300.35
300.089
299.86
299.663
299.498
299.364
299.258
299.177
299.117
299.074
299.045
299.025
299.013
299.006
299.002
299
299
299
299
299
299
299
299
299
299
299
299
299
299
299
299
299
299
299
299
299
299
299
299
299
299
299
299
299
299
299
299
299
299
299
299
299
299
299
299
299
299
299
299
299
299
299
299
299
299
299
299
299
299
299
299
299
299
299
299
299
299
299
299
299
299
299
299
299
299
299
299
299
299
299
299
299
299
299
299
299
299
299
299
299
299
299
299
299
299
299
299
299
299
299
299
299
299
299
299
299
299
299
299
299
299
299
299
299
299
299
299
299
299
299
299
299
299
299
299
299
299
299
299
299
299
299
299
299
299
299
299
299
299
299
299
299
299
299
299.002
299.002
299.003
299.003
299.004
299.004
299.004
299.004
299.004
299.004
299.004
299.004
299.004
299.004
299.004
299.004
299.004
299.004
299.004
299.004
299.004
299.004
299.004
299.004
299.004
299.004
299.004
299.004
299.004
299.004
299.004
299.004
299.004
299.004
299.004
299.004
299.004
299.004
299.004
299.004
299.004
299.004
299.004
299.004
299.004
299.004
299.004
299.004
299.004
299.004
299.004
299.004
299.004
299.004
299.004
299.004
299.004
299.004
299.004
299.004
299.004
299.004
299.004
299.004
299.004
299.004
299.004
299.004
299.004
299.004
299.004
299.004
299.005
299.005
299.005
299.005
299.005
299.005
299.005
299.005
299.006
299.006
299.006
299.006
299.006
299.007
299.007
299.007
299.007
299.008
299.008
299.008
299.008
299.009
299.009
299.009
299.009
299.01
299.01
299.01
299.011
299.011
299.011
299.012
299.012
299.012
299.013
299.013
299.013
299.014
299.014
299.014
299.015
299.015
299.016
299.016
299.016
299.017
299.017
299.018
299.018
299.019
299.019
299.02
299.02
299.021
299.022
299.022
299.023
299.024
299.026
299.028
299.031
299.035
299.042
299.051
299.065
299.085
299.115
299.159
299.221
299.31
299.436
299.611
299.853
300.183
300.628
301.221
302.002
303.016
304.318
305.967
308.029
310.572
313.668
317.382
321.776
326.894
332.764
339.383
346.715
354.677
363.138
371.915
380.776
389.45
397.649
405.097
411.57
416.932
421.157
424.326
426.596
428.158
429.196
429.864
430.283
430.539
430.69
430.777
430.825
430.849
430.861
430.866
430.867
430.867
430.867
430.866
430.864
430.861
430.858
430.856
430.854
430.854
430.853
430.853
430.853
430.854
430.854
430.854
430.855
430.856
430.857
430.857
430.858
430.859
430.86
430.86
430.861
430.862
430.862
430.863
430.863
430.864
430.864
430.865
430.865
430.866
430.866
430.866
430.867
430.867
430.867
430.868
430.868
430.868
430.868
430.869
430.869
430.869
430.869
430.869
430.87
430.87
430.87
430.87
430.87
430.87
430.87
430.871
430.871
430.871
430.871
430.871
430.871
430.871
430.871
430.871
430.872
430.872
430.872
430.872
430.872
430.872
430.872
430.872
430.872
430.872
430.872
430.872
430.872
430.872
430.872
430.873
430.873
430.873
430.873
430.873
430.873
430.873
430.873
430.873
430.873
430.873
430.873
430.873
430.873
430.873
430.873
430.873
430.873
430.873
430.873
430.873
430.873
430.873
430.873
430.873
430.872
430.872
430.872
430.872
430.872
430.872
430.872
430.872
430.872
430.872
430.872
430.871
430.872
430.87
430.872
430.868
430.873
430.864
430.876
430.854
430.878
430.826
430.873
430.743
430.82
430.484
430.511
429.567
429.152
426.014
423.33
412.405
396.943
356.372
314.08
301.331
299.367
299.058
299.009
299.001
299
299
299
299
299
299
299
299
299
299
299
299
299
299
299
299
299
299
299
299
299
299
299
299
299
299
299
299
299
299
299
299
299
299
299
299
299
299
299
299
299
299
299
299
299
299
299
299
299
299
299
299
299
299
299
299
299
299
299
299
299
299
299
299
299
299
299
299
299
299
299
299
299
299
299
299
299
299
299
299
299
299
299
299
299
299
299
299
299
299
299
299
299
299
299
299
299
299
299
299
299
299
299
299
299
299
299
299
299
299
299
299
299
299
299
299
299
299
299
299
299
299
299
299
299
299
299
299
299
299
299
299
299
299
299
299
299
299
299
299
299
299
)
;

boundaryField
{
    sides
    {
        type            zeroGradient;
    }
    empty
    {
        type            empty;
    }
}


// ************************************************************************* //
