/*--------------------------------*- C++ -*----------------------------------*\
  =========                 |
  \\      /  F ield         | OpenFOAM: The Open Source CFD Toolbox
   \\    /   O peration     | Website:  https://openfoam.org
    \\  /    A nd           | Version:  13
     \\/     M anipulation  |
\*---------------------------------------------------------------------------*/
FoamFile
{
    format      ascii;
    class       volVectorField;
    location    "0.006";
    object      U;
}
// * * * * * * * * * * * * * * * * * * * * * * * * * * * * * * * * * * * * * //

dimensions      [0 1 -1 0 0 0 0];

internalField   nonuniform List<vector> 
1000
(
(7.30742e-15 0 0)
(9.51024e-14 0 0)
(1.75403e-13 0 0)
(1.45979e-13 0 0)
(1.60896e-13 0 0)
(7.30652e-14 0 0)
(7.29308e-15 0 0)
(5.12969e-14 0 0)
(1.24264e-13 0 0)
(8.76895e-14 0 0)
(1.16805e-13 0 0)
(1.09761e-13 0 0)
(6.56253e-14 0 0)
(-2.18549e-14 0 0)
(1.47145e-14 0 0)
(1.16899e-13 0 0)
(1.68089e-13 0 0)
(1.02324e-13 0 0)
(-2.18279e-14 0 0)
(7.29947e-14 0 0)
(1.24153e-13 0 0)
(-1.24327e-13 0 0)
(-4.52947e-13 0 0)
(-5.40842e-13 0 0)
(-4.89729e-13 0 0)
(-3.143e-13 0 0)
(-3.28849e-13 0 0)
(-4.38842e-14 0 0)
(-5.12827e-14 0 0)
(-6.57358e-14 0 0)
(-1.60834e-13 0 0)
(-3.21559e-13 0 0)
(-3.21499e-13 0 0)
(-3.14261e-13 0 0)
(-1.46214e-13 0 0)
(-1.0974e-13 0 0)
(-2.92271e-13 0 0)
(-3.72894e-13 0 0)
(-4.38443e-13 0 0)
(-3.72665e-13 0 0)
(-1.82753e-13 0 0)
(-2.48512e-13 0 0)
(-2.11963e-13 0 0)
(-1.24236e-13 0 0)
(-1.75431e-13 0 0)
(-6.58718e-14 0 0)
(-5.12738e-14 0 0)
(-1.24074e-13 0 0)
(-1.24163e-13 0 0)
(-1.75426e-13 0 0)
(-2.19962e-14 0 0)
(1.3895e-13 0 0)
(3.94612e-13 0 0)
(2.26501e-13 0 0)
(1.68084e-13 0 0)
(-3.66321e-14 0 0)
(-3.1415e-13 0 0)
(-4.16494e-13 0 0)
(-1.7536e-13 0 0)
(2.26477e-13 0 0)
(1.46041e-13 0 0)
(7.36944e-15 0 0)
(-8.03957e-14 0 0)
(-1.53423e-13 0 0)
(-1.09632e-13 0 0)
(-1.31573e-13 0 0)
(-1.38803e-13 0 0)
(2.92515e-14 0 0)
(2.19111e-13 0 0)
(4.40181e-14 0 0)
(2.55647e-13 0 0)
(1.67891e-13 0 0)
(-1.60507e-13 0 0)
(-1.24093e-13 0 0)
(-5.85013e-14 0 0)
(-1.47718e-14 0 0)
(-6.56784e-14 0 0)
(1.38727e-13 0 0)
(8.77275e-14 0 0)
(1.90057e-13 0 0)
(2.62957e-13 0 0)
(-9.4882e-14 0 0)
(-1.97172e-13 0 0)
(5.11019e-14 0 0)
(2.84951e-13 0 0)
(1.02388e-13 0 0)
(1.38821e-13 0 0)
(4.37807e-14 0 0)
(-1.53411e-13 0 0)
(-5.11146e-14 0 0)
(-1.68082e-13 0 0)
(-1.4634e-14 0 0)
(2.63146e-13 0 0)
(4.23786e-13 0 0)
(3.21609e-13 0 0)
(3.65485e-13 0 0)
(3.65299e-13 0 0)
(2.26674e-13 0 0)
(1.90134e-13 0 0)
(3.87357e-13 0 0)
(5.48089e-13 0 0)
(3.58235e-13 0 0)
(3.94649e-13 0 0)
(5.04213e-13 0 0)
(2.70425e-13 0 0)
(7.46252e-15 0 0)
(1.60758e-13 0 0)
(2.266e-13 0 0)
(3.94651e-13 0 0)
(4.53142e-13 0 0)
(5.55522e-13 0 0)
(5.62669e-13 0 0)
(3.28905e-13 0 0)
(8.04971e-14 0 0)
(1.75427e-13 0 0)
(3.06937e-13 0 0)
(2.48562e-13 0 0)
(2.8501e-13 0 0)
(2.33853e-13 0 0)
(2.11949e-13 0 0)
(1.31593e-13 0 0)
(6.57706e-14 0 0)
(7.36717e-15 0 0)
(4.37513e-14 0 0)
(1.47307e-14 0 0)
(5.106e-14 0 0)
(-5.10438e-14 0 0)
(-2.20042e-14 0 0)
(6.57918e-14 0 0)
(6.57632e-14 0 0)
(2.19232e-14 0 0)
(-7.3099e-14 0 0)
(-1.89952e-13 0 0)
(-8.04306e-14 0 0)
(-3.65382e-14 0 0)
(1.46321e-14 0 0)
(7.29961e-14 0 0)
(3.65528e-14 0 0)
(9.61301e-17 0 0)
(5.84779e-14 0 0)
(1.46078e-13 0 0)
(1.02394e-13 0 0)
(1.02315e-13 0 0)
(8.03839e-14 0 0)
(1.31536e-13 0 0)
(1.16999e-13 0 0)
(1.60707e-13 0 0)
(1.17058e-13 0 0)
(1.82607e-13 0 0)
(1.31666e-13 0 0)
(1.8986e-13 0 0)
(5.86401e-14 0 0)
(1.09534e-13 0 0)
(9.51102e-14 0 0)
(1.46098e-13 0 0)
(8.04535e-14 0 0)
(9.49711e-14 0 0)
(2.92624e-14 0 0)
(2.18739e-14 0 0)
(-5.10847e-14 0 0)
(-2.19221e-14 0 0)
(-2.87188e-17 0 0)
(2.19128e-14 0 0)
(1.46911e-14 0 0)
(6.57976e-14 0 0)
(1.46063e-13 0 0)
(9.50743e-14 0 0)
(1.02306e-13 0 0)
(8.04358e-14 0 0)
(1.3151e-13 0 0)
(1.09702e-13 0 0)
(1.60691e-13 0 0)
(1.09755e-13 0 0)
(1.75296e-13 0 0)
(1.24356e-13 0 0)
(1.82538e-13 0 0)
(5.13794e-14 0 0)
(1.38783e-13 0 0)
(1.38804e-13 0 0)
(8.03786e-14 0 0)
(-7.20293e-15 0 0)
(2.19227e-14 0 0)
(3.64779e-14 0 0)
(-2.92525e-14 0 0)
(-8.75967e-14 0 0)
(-2.19262e-14 0 0)
(7.25557e-15 0 0)
(1.45964e-14 0 0)
(2.19694e-14 0 0)
(1.45817e-14 0 0)
(-1.4569e-14 0 0)
(-1.46858e-14 0 0)
(-5.84567e-14 0 0)
(-1.38777e-13 0 0)
(-5.86843e-14 0 0)
(-2.48446e-13 0 0)
(-3.36122e-13 0 0)
(-3.58068e-13 0 0)
(-2.55899e-13 0 0)
(-3.14083e-13 0 0)
(-6.58863e-14 0 0)
(-7.41158e-15 0 0)
(-1.16896e-13 0 0)
(-3.66158e-14 0 0)
(-1.02313e-13 0 0)
(-1.97259e-13 0 0)
(-1.09657e-13 0 0)
(-2.48491e-13 0 0)
(-2.33987e-13 0 0)
(-3.65379e-13 0 0)
(-3.06953e-13 0 0)
(-3.21628e-13 0 0)
(-3.80153e-13 0 0)
(-4.09171e-13 0 0)
(-2.99672e-13 0 0)
(-3.36205e-13 0 0)
(-3.72821e-13 0 0)
(-2.41135e-13 0 0)
(-5.11979e-14 0 0)
(5.99188e-13 0 0)
(1.38873e-12 0 0)
(3.32574e-12 0 0)
(7.56482e-12 0 0)
(1.64524e-11 0 0)
(3.53391e-11 0 0)
(7.47268e-11 0 0)
(1.57384e-10 0 0)
(3.29752e-10 0 0)
(6.87562e-10 0 0)
(1.42271e-09 0 0)
(2.93087e-09 0 0)
(5.99351e-09 0 0)
(1.21877e-08 0 0)
(2.46132e-08 0 0)
(4.93877e-08 0 0)
(9.84196e-08 0 0)
(1.94789e-07 0 0)
(3.82783e-07 0 0)
(7.46801e-07 0 0)
(1.44619e-06 0 0)
(2.77938e-06 0 0)
(5.30004e-06 0 0)
(1.00261e-05 0 0)
(1.88107e-05 0 0)
(3.49941e-05 0 0)
(6.45336e-05 0 0)
(0.000117938 0 0)
(0.000213532 0 0)
(0.000382879 0 0)
(0.000679653 0 0)
(0.00119386 0 0)
(0.00207423 0 0)
(0.00356255 0 0)
(0.00604504 0 0)
(0.0101266 0 0)
(0.0167337 0 0)
(0.0272493 0 0)
(0.0436774 0 0)
(0.0688196 0 0)
(0.106431 0 0)
(0.161304 0 0)
(0.239208 0 0)
(0.346673 0 0)
(0.49059 0 0)
(0.677737 0 0)
(0.914286 0 0)
(1.20542 0 0)
(1.55506 0 0)
(1.96576 0 0)
(2.43874 0 0)
(2.97398 0 0)
(3.57037 0 0)
(4.22599 0 0)
(4.93822 0 0)
(5.70404 0 0)
(6.52009 0 0)
(7.38293 0 0)
(8.28905 0 0)
(9.23504 0 0)
(10.2176 0 0)
(11.2336 0 0)
(12.2801 0 0)
(13.3545 0 0)
(14.4541 0 0)
(15.5767 0 0)
(16.7203 0 0)
(17.8828 0 0)
(19.0627 0 0)
(20.2583 0 0)
(21.4682 0 0)
(22.6912 0 0)
(23.9261 0 0)
(25.1719 0 0)
(26.4277 0 0)
(27.6926 0 0)
(28.9658 0 0)
(30.2467 0 0)
(31.5347 0 0)
(32.8292 0 0)
(34.1297 0 0)
(35.4358 0 0)
(36.7469 0 0)
(38.0628 0 0)
(39.3831 0 0)
(40.7074 0 0)
(42.0356 0 0)
(43.3672 0 0)
(44.7022 0 0)
(46.0402 0 0)
(47.381 0 0)
(48.7245 0 0)
(50.0705 0 0)
(51.4188 0 0)
(52.7692 0 0)
(54.1218 0 0)
(55.4762 0 0)
(56.8323 0 0)
(58.1902 0 0)
(59.5496 0 0)
(60.9105 0 0)
(62.2727 0 0)
(63.6363 0 0)
(65.001 0 0)
(66.3668 0 0)
(67.7337 0 0)
(69.1016 0 0)
(70.4703 0 0)
(71.8399 0 0)
(73.2103 0 0)
(74.5813 0 0)
(75.953 0 0)
(77.3253 0 0)
(78.6981 0 0)
(80.0714 0 0)
(81.4451 0 0)
(82.8191 0 0)
(84.1934 0 0)
(85.5679 0 0)
(86.9426 0 0)
(88.3174 0 0)
(89.6921 0 0)
(91.0669 0 0)
(92.4415 0 0)
(93.8158 0 0)
(95.1899 0 0)
(96.5635 0 0)
(97.9367 0 0)
(99.3092 0 0)
(100.681 0 0)
(102.052 0 0)
(103.421 0 0)
(104.79 0 0)
(106.157 0 0)
(107.522 0 0)
(108.885 0 0)
(110.246 0 0)
(111.604 0 0)
(112.959 0 0)
(114.31 0 0)
(115.657 0 0)
(116.999 0 0)
(118.335 0 0)
(119.664 0 0)
(120.984 0 0)
(122.294 0 0)
(123.592 0 0)
(124.876 0 0)
(126.143 0 0)
(127.388 0 0)
(128.608 0 0)
(129.798 0 0)
(130.95 0 0)
(132.059 0 0)
(133.115 0 0)
(134.11 0 0)
(135.035 0 0)
(135.882 0 0)
(136.642 0 0)
(137.311 0 0)
(137.886 0 0)
(138.367 0 0)
(138.759 0 0)
(139.069 0 0)
(139.306 0 0)
(139.482 0 0)
(139.608 0 0)
(139.694 0 0)
(139.751 0 0)
(139.787 0 0)
(139.808 0 0)
(139.819 0 0)
(139.825 0 0)
(139.829 0 0)
(139.833 0 0)
(139.838 0 0)
(139.845 0 0)
(139.854 0 0)
(139.868 0 0)
(139.89 0 0)
(139.925 0 0)
(139.984 0 0)
(140.08 0 0)
(140.233 0 0)
(140.469 0 0)
(140.818 0 0)
(141.307 0 0)
(141.953 0 0)
(142.758 0 0)
(143.712 0 0)
(144.797 0 0)
(145.989 0 0)
(147.269 0 0)
(148.62 0 0)
(150.026 0 0)
(151.477 0 0)
(152.963 0 0)
(154.477 0 0)
(156.015 0 0)
(157.571 0 0)
(159.142 0 0)
(160.726 0 0)
(162.321 0 0)
(163.924 0 0)
(165.536 0 0)
(167.153 0 0)
(168.776 0 0)
(170.403 0 0)
(172.035 0 0)
(173.67 0 0)
(175.308 0 0)
(176.949 0 0)
(178.592 0 0)
(180.238 0 0)
(181.885 0 0)
(183.534 0 0)
(185.185 0 0)
(186.837 0 0)
(188.49 0 0)
(190.144 0 0)
(191.799 0 0)
(193.455 0 0)
(195.113 0 0)
(196.77 0 0)
(198.429 0 0)
(200.088 0 0)
(201.748 0 0)
(203.409 0 0)
(205.07 0 0)
(206.731 0 0)
(208.393 0 0)
(210.055 0 0)
(211.718 0 0)
(213.382 0 0)
(215.045 0 0)
(216.709 0 0)
(218.373 0 0)
(220.038 0 0)
(221.703 0 0)
(223.368 0 0)
(225.034 0 0)
(226.7 0 0)
(228.366 0 0)
(230.032 0 0)
(231.699 0 0)
(233.366 0 0)
(235.033 0 0)
(236.7 0 0)
(238.368 0 0)
(240.036 0 0)
(241.704 0 0)
(243.372 0 0)
(245.04 0 0)
(246.708 0 0)
(248.377 0 0)
(250.046 0 0)
(251.715 0 0)
(253.384 0 0)
(255.053 0 0)
(256.722 0 0)
(258.391 0 0)
(260.06 0 0)
(261.729 0 0)
(263.397 0 0)
(265.066 0 0)
(266.734 0 0)
(268.402 0 0)
(270.07 0 0)
(271.737 0 0)
(273.404 0 0)
(275.069 0 0)
(276.734 0 0)
(278.398 0 0)
(280.06 0 0)
(281.72 0 0)
(283.379 0 0)
(285.034 0 0)
(286.687 0 0)
(288.336 0 0)
(289.981 0 0)
(291.623 0 0)
(293.262 0 0)
(294.904 0 0)
(296.545 0 0)
(298.178 0 0)
(299.8 0 0)
(301.409 0 0)
(303 0 0)
(304.57 0 0)
(306.114 0 0)
(307.624 0 0)
(309.092 0 0)
(310.504 0 0)
(311.844 0 0)
(313.093 0 0)
(314.227 0 0)
(315.227 0 0)
(316.075 0 0)
(316.763 0 0)
(317.296 0 0)
(317.683 0 0)
(317.946 0 0)
(318.109 0 0)
(318.2 0 0)
(318.245 0 0)
(318.266 0 0)
(318.274 0 0)
(318.278 0 0)
(318.28 0 0)
(318.282 0 0)
(318.281 0 0)
(318.277 0 0)
(318.275 0 0)
(318.274 0 0)
(318.273 0 0)
(318.272 0 0)
(318.271 0 0)
(318.271 0 0)
(318.271 0 0)
(318.27 0 0)
(318.27 0 0)
(318.271 0 0)
(318.271 0 0)
(318.271 0 0)
(318.271 0 0)
(318.272 0 0)
(318.272 0 0)
(318.272 0 0)
(318.273 0 0)
(318.273 0 0)
(318.273 0 0)
(318.273 0 0)
(318.274 0 0)
(318.274 0 0)
(318.274 0 0)
(318.274 0 0)
(318.275 0 0)
(318.275 0 0)
(318.275 0 0)
(318.275 0 0)
(318.276 0 0)
(318.276 0 0)
(318.276 0 0)
(318.276 0 0)
(318.276 0 0)
(318.276 0 0)
(318.276 0 0)
(318.277 0 0)
(318.277 0 0)
(318.277 0 0)
(318.277 0 0)
(318.277 0 0)
(318.277 0 0)
(318.277 0 0)
(318.278 0 0)
(318.278 0 0)
(318.278 0 0)
(318.278 0 0)
(318.278 0 0)
(318.278 0 0)
(318.278 0 0)
(318.278 0 0)
(318.278 0 0)
(318.278 0 0)
(318.279 0 0)
(318.279 0 0)
(318.279 0 0)
(318.279 0 0)
(318.279 0 0)
(318.279 0 0)
(318.279 0 0)
(318.279 0 0)
(318.279 0 0)
(318.279 0 0)
(318.279 0 0)
(318.279 0 0)
(318.279 0 0)
(318.28 0 0)
(318.28 0 0)
(318.28 0 0)
(318.28 0 0)
(318.28 0 0)
(318.28 0 0)
(318.28 0 0)
(318.28 0 0)
(318.28 0 0)
(318.28 0 0)
(318.28 0 0)
(318.28 0 0)
(318.28 0 0)
(318.28 0 0)
(318.28 0 0)
(318.28 0 0)
(318.28 0 0)
(318.28 0 0)
(318.28 0 0)
(318.28 0 0)
(318.28 0 0)
(318.28 0 0)
(318.28 0 0)
(318.28 0 0)
(318.28 0 0)
(318.28 0 0)
(318.28 0 0)
(318.28 0 0)
(318.28 0 0)
(318.28 0 0)
(318.28 0 0)
(318.28 0 0)
(318.28 0 0)
(318.28 0 0)
(318.28 0 0)
(318.28 0 0)
(318.28 0 0)
(318.28 0 0)
(318.28 0 0)
(318.28 0 0)
(318.28 0 0)
(318.28 0 0)
(318.28 0 0)
(318.28 0 0)
(318.28 0 0)
(318.28 0 0)
(318.28 0 0)
(318.28 0 0)
(318.28 0 0)
(318.28 0 0)
(318.28 0 0)
(318.28 0 0)
(318.28 0 0)
(318.28 0 0)
(318.28 0 0)
(318.28 0 0)
(318.28 0 0)
(318.28 0 0)
(318.28 0 0)
(318.28 0 0)
(318.28 0 0)
(318.28 0 0)
(318.28 0 0)
(318.28 0 0)
(318.28 0 0)
(318.28 0 0)
(318.28 0 0)
(318.28 0 0)
(318.28 0 0)
(318.28 0 0)
(318.28 0 0)
(318.279 0 0)
(318.279 0 0)
(318.279 0 0)
(318.279 0 0)
(318.279 0 0)
(318.279 0 0)
(318.279 0 0)
(318.279 0 0)
(318.279 0 0)
(318.279 0 0)
(318.279 0 0)
(318.28 0 0)
(318.28 0 0)
(318.281 0 0)
(318.282 0 0)
(318.283 0 0)
(318.285 0 0)
(318.288 0 0)
(318.291 0 0)
(318.295 0 0)
(318.3 0 0)
(318.305 0 0)
(318.31 0 0)
(318.314 0 0)
(318.318 0 0)
(318.32 0 0)
(318.32 0 0)
(318.318 0 0)
(318.314 0 0)
(318.31 0 0)
(318.304 0 0)
(318.299 0 0)
(318.296 0 0)
(318.293 0 0)
(318.292 0 0)
(318.291 0 0)
(318.291 0 0)
(318.291 0 0)
(318.291 0 0)
(318.291 0 0)
(318.291 0 0)
(318.291 0 0)
(318.291 0 0)
(318.291 0 0)
(318.29 0 0)
(318.29 0 0)
(318.291 0 0)
(318.29 0 0)
(318.29 0 0)
(318.29 0 0)
(318.29 0 0)
(318.29 0 0)
(318.29 0 0)
(318.29 0 0)
(318.29 0 0)
(318.29 0 0)
(318.29 0 0)
(318.29 0 0)
(318.29 0 0)
(318.289 0 0)
(318.289 0 0)
(318.289 0 0)
(318.289 0 0)
(318.289 0 0)
(318.289 0 0)
(318.289 0 0)
(318.289 0 0)
(318.289 0 0)
(318.289 0 0)
(318.289 0 0)
(318.289 0 0)
(318.289 0 0)
(318.288 0 0)
(318.288 0 0)
(318.288 0 0)
(318.288 0 0)
(318.288 0 0)
(318.288 0 0)
(318.288 0 0)
(318.288 0 0)
(318.288 0 0)
(318.288 0 0)
(318.288 0 0)
(318.287 0 0)
(318.287 0 0)
(318.287 0 0)
(318.287 0 0)
(318.287 0 0)
(318.287 0 0)
(318.287 0 0)
(318.287 0 0)
(318.287 0 0)
(318.286 0 0)
(318.286 0 0)
(318.286 0 0)
(318.286 0 0)
(318.286 0 0)
(318.286 0 0)
(318.286 0 0)
(318.286 0 0)
(318.286 0 0)
(318.285 0 0)
(318.285 0 0)
(318.285 0 0)
(318.285 0 0)
(318.285 0 0)
(318.285 0 0)
(318.285 0 0)
(318.284 0 0)
(318.284 0 0)
(318.284 0 0)
(318.284 0 0)
(318.284 0 0)
(318.284 0 0)
(318.284 0 0)
(318.284 0 0)
(318.283 0 0)
(318.283 0 0)
(318.283 0 0)
(318.283 0 0)
(318.283 0 0)
(318.283 0 0)
(318.282 0 0)
(318.282 0 0)
(318.282 0 0)
(318.282 0 0)
(318.282 0 0)
(318.282 0 0)
(318.281 0 0)
(318.281 0 0)
(318.281 0 0)
(318.281 0 0)
(318.281 0 0)
(318.28 0 0)
(318.28 0 0)
(318.28 0 0)
(318.28 0 0)
(318.28 0 0)
(318.279 0 0)
(318.279 0 0)
(318.279 0 0)
(318.279 0 0)
(318.278 0 0)
(318.278 0 0)
(318.278 0 0)
(318.278 0 0)
(318.277 0 0)
(318.277 0 0)
(318.277 0 0)
(318.277 0 0)
(318.276 0 0)
(318.276 0 0)
(318.276 0 0)
(318.276 0 0)
(318.275 0 0)
(318.275 0 0)
(318.275 0 0)
(318.274 0 0)
(318.274 0 0)
(318.273 0 0)
(318.274 0 0)
(318.272 0 0)
(318.273 0 0)
(318.269 0 0)
(318.273 0 0)
(318.265 0 0)
(318.274 0 0)
(318.259 0 0)
(318.276 0 0)
(318.247 0 0)
(318.276 0 0)
(318.216 0 0)
(318.254 0 0)
(318.121 0 0)
(318.139 0 0)
(317.819 0 0)
(317.642 0 0)
(316.902 0 0)
(315.454 0 0)
(313.544 0 0)
(306.433 0 0)
(299.526 0 0)
(272.209 0 0)
(236.477 0 0)
(140.489 0 0)
(38.7151 0 0)
(6.4992 0 0)
(1.05493 0 0)
(0.168458 0 0)
(0.0268452 0 0)
(0.00427742 0 0)
(0.000681525 0 0)
(0.000108587 0 0)
(1.73008e-05 0 0)
(2.75649e-06 0 0)
(4.39186e-07 0 0)
(6.99737e-08 0 0)
(1.11501e-08 0 0)
(1.7766e-09 0 0)
(2.83651e-10 0 0)
(4.52693e-11 0 0)
(7.62285e-12 0 0)
(1.3448e-12 0 0)
(5.0824e-13 0 0)
(2.03642e-13 0 0)
(2.41195e-13 0 0)
(1.48707e-13 0 0)
(3.95225e-14 0 0)
(2.73555e-13 0 0)
(1.64339e-13 0 0)
(1.87695e-13 0 0)
(2.02875e-13 0 0)
(7.82643e-14 0 0)
(-5.34617e-14 0 0)
(1.39771e-13 0 0)
(2.02028e-13 0 0)
(-1.14913e-13 0 0)
(7.77864e-15 0 0)
(1.77052e-13 0 0)
(1.18287e-13 0 0)
(-2.40598e-14 0 0)
(-3.74568e-13 0 0)
(-1.7865e-13 0 0)
(-5.5582e-14 0 0)
(-1.16747e-13 0 0)
(-1.17542e-13 0 0)
(-1.87765e-13 0 0)
(-3.82716e-13 0 0)
(-4.92489e-13 0 0)
(-6.17297e-13 0 0)
(-6.81586e-13 0 0)
(-7.80671e-13 0 0)
(-8.363e-13 0 0)
(-8.13512e-13 0 0)
(-7.74304e-13 0 0)
(-8.69203e-13 0 0)
(-1.272e-12 0 0)
(-1.21167e-12 0 0)
(-8.53145e-13 0 0)
(-7.48483e-13 0 0)
(-4.3863e-13 0 0)
(-3.91134e-13 0 0)
(-4.37373e-13 0 0)
(-3.43656e-13 0 0)
(-5.58376e-14 0 0)
(7.7977e-14 0 0)
(7.93988e-14 0 0)
(3.19773e-13 0 0)
(5.23828e-13 0 0)
(6.09817e-13 0 0)
(7.57229e-13 0 0)
(5.85192e-13 0 0)
(1.27289e-13 0 0)
(2.97169e-13 0 0)
(3.90278e-13 0 0)
(2.74102e-13 0 0)
(4.69479e-13 0 0)
(7.73579e-13 0 0)
(7.03685e-13 0 0)
(7.8133e-13 0 0)
(7.88262e-13 0 0)
(5.64446e-13 0 0)
(7.89835e-13 0 0)
(8.28566e-13 0 0)
(6.95949e-13 0 0)
(7.90448e-13 0 0)
(1.00002e-12 0 0)
(9.52476e-13 0 0)
(6.34398e-13 0 0)
(1.02345e-12 0 0)
(1.17237e-12 0 0)
(1.18825e-12 0 0)
(1.07137e-12 0 0)
(8.68102e-13 0 0)
(9.85032e-13 0 0)
(1.02385e-12 0 0)
(1.06199e-12 0 0)
(8.60916e-13 0 0)
(7.50226e-13 0 0)
(4.5389e-13 0 0)
(5.63317e-13 0 0)
(9.22227e-13 0 0)
(1.03217e-12 0 0)
(1.02416e-12 0 0)
(9.3778e-13 0 0)
(9.91404e-13 0 0)
(6.89306e-13 0 0)
(7.97398e-13 0 0)
(8.7548e-13 0 0)
(8.05796e-13 0 0)
(9.61103e-13 0 0)
(8.91677e-13 0 0)
(7.97293e-13 0 0)
(9.37996e-13 0 0)
(1.05502e-12 0 0)
(9.53817e-13 0 0)
(1.03194e-12 0 0)
(1.09419e-12 0 0)
(9.07288e-13 0 0)
(8.29388e-13 0 0)
(9.14299e-13 0 0)
(9.44687e-13 0 0)
(5.16986e-13 0 0)
(4.68927e-13 0 0)
(4.06739e-13 0 0)
(5.4749e-13 0 0)
(8.4384e-13 0 0)
(7.58381e-13 0 0)
(8.60557e-13 0 0)
(9.5349e-13 0 0)
(1.0072e-12 0 0)
(7.90611e-13 0 0)
(6.79979e-13 0 0)
(6.72261e-13 0 0)
(6.57012e-13 0 0)
(6.57048e-13 0 0)
(8.05171e-13 0 0)
(1.05496e-12 0 0)
(1.32921e-12 0 0)
(1.43833e-12 0 0)
(1.36794e-12 0 0)
(1.29783e-12 0 0)
(1.3992e-12 0 0)
(1.37627e-12 0 0)
(1.49318e-12 0 0)
(1.7123e-12 0 0)
(1.6096e-12 0 0)
(1.41597e-12 0 0)
(1.22701e-12 0 0)
(1.11781e-12 0 0)
(1.15733e-12 0 0)
(1.34439e-12 0 0)
(1.33686e-12 0 0)
)
;

boundaryField
{
    sides
    {
        type            zeroGradient;
    }
    empty
    {
        type            empty;
    }
}


// ************************************************************************* //
